--------------------------------------------------------------------------
By default, for Open MPI 4.0 and later, infiniband ports on a device
are not used by default.  The intent is to use UCX for these devices.
You can override this policy by setting the btl_openib_allow_ib MCA parameter
to true.

  Local host:              psid00
  Local adapter:           mlx5_0
  Local port:              1

--------------------------------------------------------------------------
--------------------------------------------------------------------------
WARNING: There was an error initializing an OpenFabrics device.

  Local host:   psid00
  Local device: mlx5_0
--------------------------------------------------------------------------

     Program PWSCF v.7.3.1 starts on 10Feb2025 at  0:36:21 

     This program is part of the open-source Quantum ESPRESSO suite
     for quantum simulation of materials; please cite
         "P. Giannozzi et al., J. Phys.:Condens. Matter 21 395502 (2009);
         "P. Giannozzi et al., J. Phys.:Condens. Matter 29 465901 (2017);
         "P. Giannozzi et al., J. Chem. Phys. 152 154105 (2020);
          URL http://www.quantum-espresso.org", 
     in publications or presentations arising from this work. More details at
     http://www.quantum-espresso.org/quote

     Parallel version (MPI), running on     4 processors

     MPI processes distributed on     1 nodes
     92754 MiB available memory on the printing compute node when the environment starts

     Waiting for input...
     Reading input from standard input
Warning: card &CELL ignored
Warning: card / ignored

     Current dimensions of program PWSCF are:
     Max number of different atomic species (ntypx) = 10
     Max number of k-points (npk) =  40000
     Max angular momentum in pseudopotentials (lmaxx) =  4
     file O.pbe-n-kjpaw_psl.0.1.UPF: wavefunction(s)  2P renormalized

     gamma-point specific algorithms are used

     R & G space division:  proc/nbgrp/npool/nimage =       4
     Subspace diagonalization in iterative solution of the eigenvalue problem:
     a serial algorithm will be used


     Parallelization info
     --------------------
     sticks:   dense  smooth     PW     G-vecs:    dense   smooth      PW
     Min        6393    3194    796               769368   272129   33969
     Max        6396    3198    799               769372   272134   33972
     Sum       25581   12785   3189              3077481  1088527  135883

     Using Slab Decomposition



     bravais-lattice index     =            1
     lattice parameter (alat)  =      28.3459  a.u.
     unit-cell volume          =   22775.6289 (a.u.)^3
     number of atoms/cell      =            3
     number of atomic types    =            2
     number of electrons       =         8.00
     number of Kohn-Sham states=            4
     kinetic-energy cutoff     =      50.0000  Ry
     charge density cutoff     =     400.0000  Ry
     scf convergence threshold =      1.0E-06
     mixing beta               =       0.7000
     number of iterations used =            8  plain     mixing
     energy convergence thresh.=      1.0E-04
     force convergence thresh. =      1.0E-03
     Exchange-correlation= PBE
                           (   1   4   3   4   0   0   0)
     nstep                     =          100


     celldm(1)=  28.345892  celldm(2)=   0.000000  celldm(3)=   0.000000
     celldm(4)=   0.000000  celldm(5)=   0.000000  celldm(6)=   0.000000

     crystal axes: (cart. coord. in units of alat)
               a(1) = (   1.000000   0.000000   0.000000 )  
               a(2) = (   0.000000   1.000000   0.000000 )  
               a(3) = (   0.000000   0.000000   1.000000 )  

     reciprocal axes: (cart. coord. in units 2 pi/alat)
               b(1) = (  1.000000  0.000000  0.000000 )  
               b(2) = (  0.000000  1.000000  0.000000 )  
               b(3) = (  0.000000  0.000000  1.000000 )  


     PseudoPot. # 1 for O  read from file:
     /home/ys/qe-7.3.1/pseudo/Standard_solid-state_pseudopotentials_SSSP_1.3.0_PBE_efficiency/O.pbe-n-kjpaw_psl.0.1.UPF
     MD5 check sum: 0234752ac141de4415c5fc33072bef88
     Pseudo is Projector augmented-wave + core cor, Zval =  6.0
     Generated using "atomic" code by A. Dal Corso  v.5.0.99 svn rev. 10869
     Shape of augmentation charge: BESSEL
     Using radial grid of 1095 points,  4 beta functions with: 
                l(1) =   0
                l(2) =   0
                l(3) =   1
                l(4) =   1
     Q(r) pseudized with 0 coefficients 


     PseudoPot. # 2 for H  read from file:
     /home/ys/qe-7.3.1/pseudo/Standard_solid-state_pseudopotentials_SSSP_1.3.0_PBE_efficiency/H.pbe-rrkjus_psl.1.0.0.UPF
     MD5 check sum: f52b6d4d1c606e5624b1dc7b2218f220
     Pseudo is Ultrasoft, Zval =  1.0
     Generated using "atomic" code by A. Dal Corso  v.5.1
     Using radial grid of  929 points,  2 beta functions with: 
                l(1) =   0
                l(2) =   0
     Q(r) pseudized with 0 coefficients 


     atomic species   valence    mass     pseudopotential
     O                 6.00    15.99940     O ( 1.00)
     H                 1.00     1.00794     H ( 1.00)

     No symmetry found



   Cartesian axes

     site n.     atom                  positions (alat units)
         1        O      tau(   1) = (   0.0283742   0.0667788   0.0784328  )
         2        H      tau(   2) = (   0.0927346   0.0650085   0.0753104  )
         3        H      tau(   3) = (   0.0103039   0.0362597   0.0246057  )

     number of k points=     1
                       cart. coord. in units 2pi/alat
        k(    1) = (   0.0000000   0.0000000   0.0000000), wk =   2.0000000

     Dense  grid:  1538741 G-vectors     FFT dimensions: ( 192, 192, 192)

     Smooth grid:   544264 G-vectors     FFT dimensions: ( 128, 128, 128)

     Estimated max dynamical RAM per process >     575.18 MB

     Estimated total dynamical RAM >       2.25 GB

     Initial potential from superposition of free atoms

     starting charge       8.0000, renormalised to       8.0000

     negative rho (up, down):  6.868E-04 0.000E+00
     Starting wfcs are    6 randomized atomic wfcs
     Checking if some PAW data can be deallocated... 

     total cpu time spent up to now is        2.4 secs

     Self-consistent Calculation

     iteration #  1     ecut=    50.00 Ry     beta= 0.70
     Davidson diagonalization with overlap
     ethr =  1.00E-02,  avg # of iterations =  2.0

     negative rho (up, down):  8.597E-04 0.000E+00

     total cpu time spent up to now is        4.6 secs

     total energy              =     -43.82307905 Ry
     estimated scf accuracy    <       0.47620954 Ry

     iteration #  2     ecut=    50.00 Ry     beta= 0.70
     Davidson diagonalization with overlap
     ethr =  5.95E-03,  avg # of iterations =  3.0
[psid00:102153] 3 more processes have sent help message help-mpi-btl-openib.txt / ib port not selected
[psid00:102153] Set MCA parameter "orte_base_help_aggregate" to 0 to see all help / error messages
[psid00:102153] 3 more processes have sent help message help-mpi-btl-openib.txt / error in device init

     negative rho (up, down):  8.672E-04 0.000E+00

     total cpu time spent up to now is        6.7 secs

     total energy              =     -43.94587371 Ry
     estimated scf accuracy    <       0.48772583 Ry

     iteration #  3     ecut=    50.00 Ry     beta= 0.70
     Davidson diagonalization with overlap
     ethr =  5.95E-03,  avg # of iterations =  2.0

     negative rho (up, down):  6.350E-04 0.000E+00

     total cpu time spent up to now is        8.8 secs

     total energy              =     -44.02290440 Ry
     estimated scf accuracy    <       0.01596281 Ry

     iteration #  4     ecut=    50.00 Ry     beta= 0.70
     Davidson diagonalization with overlap
     ethr =  2.00E-04,  avg # of iterations =  4.0

     negative rho (up, down):  7.411E-04 0.000E+00

     total cpu time spent up to now is       11.1 secs

     total energy              =     -44.03883137 Ry
     estimated scf accuracy    <       0.03241405 Ry

     iteration #  5     ecut=    50.00 Ry     beta= 0.70
     Davidson diagonalization with overlap
     ethr =  2.00E-04,  avg # of iterations =  2.0

     negative rho (up, down):  7.655E-04 0.000E+00

     total cpu time spent up to now is       13.2 secs

     total energy              =     -44.03888469 Ry
     estimated scf accuracy    <       0.00654625 Ry

     iteration #  6     ecut=    50.00 Ry     beta= 0.70
     Davidson diagonalization with overlap
     ethr =  8.18E-05,  avg # of iterations =  2.0

     negative rho (up, down):  7.428E-04 0.000E+00

     total cpu time spent up to now is       15.3 secs

     total energy              =     -44.03917609 Ry
     estimated scf accuracy    <       0.00112945 Ry

     iteration #  7     ecut=    50.00 Ry     beta= 0.70
     Davidson diagonalization with overlap
     ethr =  1.41E-05,  avg # of iterations =  2.0

     negative rho (up, down):  7.277E-04 0.000E+00

     total cpu time spent up to now is       17.4 secs

     total energy              =     -44.03938305 Ry
     estimated scf accuracy    <       0.00007465 Ry

     iteration #  8     ecut=    50.00 Ry     beta= 0.70
     Davidson diagonalization with overlap
     ethr =  9.33E-07,  avg # of iterations =  3.0

     negative rho (up, down):  7.184E-04 0.000E+00

     total cpu time spent up to now is       19.6 secs

     total energy              =     -44.03946058 Ry
     estimated scf accuracy    <       0.00005056 Ry

     iteration #  9     ecut=    50.00 Ry     beta= 0.70
     Davidson diagonalization with overlap
     ethr =  6.32E-07,  avg # of iterations =  1.0

     negative rho (up, down):  7.133E-04 0.000E+00

     total cpu time spent up to now is       21.7 secs

     total energy              =     -44.03944041 Ry
     estimated scf accuracy    <       0.00005446 Ry

     iteration # 10     ecut=    50.00 Ry     beta= 0.70
     Davidson diagonalization with overlap
     ethr =  6.32E-07,  avg # of iterations =  1.0

     negative rho (up, down):  7.131E-04 0.000E+00

     total cpu time spent up to now is       23.8 secs

     total energy              =     -44.03944146 Ry
     estimated scf accuracy    <       0.00000699 Ry

     iteration # 11     ecut=    50.00 Ry     beta= 0.70
     Davidson diagonalization with overlap
     ethr =  8.74E-08,  avg # of iterations =  2.0

     negative rho (up, down):  7.139E-04 0.000E+00

     total cpu time spent up to now is       25.8 secs

     End of self-consistent calculation

          k = 0.0000 0.0000 0.0000 ( 67942 PWs)   bands (ev):

   -25.3126 -13.0215  -9.3423  -7.1997

     highest occupied level (ev):    -7.1997

!    total energy              =     -44.03944287 Ry
     estimated scf accuracy    <       0.00000028 Ry

     The total energy is the sum of the following terms:
     one-electron contribution =     -69.36339047 Ry
     hartree contribution      =      36.23565880 Ry
     xc contribution           =      -8.83884032 Ry
     ewald contribution        =       7.43646041 Ry
     one-center paw contrib.   =      -9.50933129 Ry

     convergence has been achieved in  11 iterations

     negative rho (up, down):  7.139E-04 0.000E+00

     Forces acting on atoms (cartesian axes, Ry/au):

     atom    1 type  1   force =    -0.00200876    0.00137636    0.00242168
     atom    2 type  2   force =     0.00818570    0.00181228    0.00319754
     atom    3 type  2   force =    -0.00617695   -0.00318864   -0.00561921

     Total force =     0.013123     Total SCF correction =     0.000337

     BFGS Geometry Optimization
     Energy error            =      0.0E+00 Ry
     Gradient error          =      8.2E-03 Ry/Bohr

     number of scf cycles    =   1
     number of bfgs steps    =   0

     energy             new  =     -44.0394428673 Ry

     new trust radius        =       0.0089729800 bohr
     new conv_thr            =       0.0000010000 Ry


ATOMIC_POSITIONS (angstrom)
O                0.4245500103        1.0024103395        1.1777734959
H                1.3953506884        0.9760870178        1.1313480640
H                0.1512893013        0.5422076426        0.3661114402



     Writing config-only to output data dir /home/ys/Research/PSID_server_room/qe/water_relax/pwscf.save/ :
     XML data file
     NEW-OLD atomic charge density approx. for the potential

     negative rho (up, down):  7.076E-04 0.000E+00

     total cpu time spent up to now is       29.4 secs

     Self-consistent Calculation

     iteration #  1     ecut=    50.00 Ry     beta= 0.70
     Davidson diagonalization with overlap
     ethr =  1.00E-06,  avg # of iterations =  3.0

     negative rho (up, down):  7.091E-04 0.000E+00

     total cpu time spent up to now is       31.6 secs

     total energy              =     -44.03949573 Ry
     estimated scf accuracy    <       0.00003848 Ry

     iteration #  2     ecut=    50.00 Ry     beta= 0.70
     Davidson diagonalization with overlap
     ethr =  4.81E-07,  avg # of iterations =  2.0

     negative rho (up, down):  7.116E-04 0.000E+00

     total cpu time spent up to now is       33.8 secs

     total energy              =     -44.03950530 Ry
     estimated scf accuracy    <       0.00001688 Ry

     iteration #  3     ecut=    50.00 Ry     beta= 0.70
     Davidson diagonalization with overlap
     ethr =  2.11E-07,  avg # of iterations =  2.0

     negative rho (up, down):  7.120E-04 0.000E+00

     total cpu time spent up to now is       35.7 secs

     End of self-consistent calculation

          k = 0.0000 0.0000 0.0000 ( 67942 PWs)   bands (ev):

   -25.2508 -12.9772  -9.3296  -7.1886

     highest occupied level (ev):    -7.1886

!    total energy              =     -44.03950837 Ry
     estimated scf accuracy    <       0.00000014 Ry

     The total energy is the sum of the following terms:
     one-electron contribution =     -69.24106309 Ry
     hartree contribution      =      36.18084274 Ry
     xc contribution           =      -8.82965115 Ry
     ewald contribution        =       7.36018094 Ry
     one-center paw contrib.   =      -9.50981781 Ry

     convergence has been achieved in   3 iterations

     negative rho (up, down):  7.120E-04 0.000E+00

     Forces acting on atoms (cartesian axes, Ry/au):

     atom    1 type  1   force =     0.00428794   -0.00295725   -0.00522113
     atom    2 type  2   force =    -0.00223568    0.00145894    0.00257407
     atom    3 type  2   force =    -0.00205227    0.00149830    0.00264705

     Total force =     0.009034     Total SCF correction =     0.000277
     Energy error            =      6.6E-05 Ry
     Gradient error          =      5.2E-03 Ry/Bohr

     number of scf cycles    =   2
     number of bfgs steps    =   1

     energy             old  =     -44.0394428673 Ry
     energy             new  =     -44.0395083715 Ry

     CASE: energy            _new < energy            _old

     new trust radius        =       0.0050387627 bohr
     new conv_thr            =       0.0000000100 Ry


ATOMIC_POSITIONS (angstrom)
O                0.4260985017        1.0013410740        1.1758844416
H                1.3955924772        0.9769806911        1.1329248165
H                0.1494990210        0.5423832350        0.3664237418



     Writing config-only to output data dir /home/ys/Research/PSID_server_room/qe/water_relax/pwscf.save/ :
     XML data file
     NEW-OLD atomic charge density approx. for the potential

     negative rho (up, down):  7.182E-04 0.000E+00

     total cpu time spent up to now is       39.4 secs

     Self-consistent Calculation

     iteration #  1     ecut=    50.00 Ry     beta= 0.70
     Davidson diagonalization with overlap
     ethr =  1.00E-06,  avg # of iterations =  3.0

     Threshold (ethr) on eigenvalues was too large:
     Diagonalizing with lowered threshold

     Davidson diagonalization with overlap
     ethr =  7.92E-08,  avg # of iterations =  1.0

     negative rho (up, down):  7.149E-04 0.000E+00

     total cpu time spent up to now is       42.2 secs

     total energy              =     -44.03954834 Ry
     estimated scf accuracy    <       0.00000592 Ry

     iteration #  2     ecut=    50.00 Ry     beta= 0.70
     Davidson diagonalization with overlap
     ethr =  7.40E-08,  avg # of iterations =  2.0

     negative rho (up, down):  7.131E-04 0.000E+00

     total cpu time spent up to now is       44.3 secs

     total energy              =     -44.03954956 Ry
     estimated scf accuracy    <       0.00000288 Ry

     iteration #  3     ecut=    50.00 Ry     beta= 0.70
     Davidson diagonalization with overlap
     ethr =  3.60E-08,  avg # of iterations =  2.0

     negative rho (up, down):  7.128E-04 0.000E+00

     total cpu time spent up to now is       46.5 secs

     total energy              =     -44.03955011 Ry
     estimated scf accuracy    <       0.00000005 Ry

     iteration #  4     ecut=    50.00 Ry     beta= 0.70
     Davidson diagonalization with overlap
     ethr =  6.71E-10,  avg # of iterations =  3.0

     negative rho (up, down):  7.129E-04 0.000E+00

     total cpu time spent up to now is       48.7 secs

     total energy              =     -44.03955011 Ry
     estimated scf accuracy    <       0.00000005 Ry

     iteration #  5     ecut=    50.00 Ry     beta= 0.70
     Davidson diagonalization with overlap
     ethr =  6.05E-10,  avg # of iterations =  2.0

     negative rho (up, down):  7.129E-04 0.000E+00

     total cpu time spent up to now is       50.6 secs

     End of self-consistent calculation

          k = 0.0000 0.0000 0.0000 ( 67942 PWs)   bands (ev):

   -25.2596 -13.0140  -9.3094  -7.1897

     highest occupied level (ev):    -7.1897

!    total energy              =     -44.03955012 Ry
     estimated scf accuracy    <          2.0E-10 Ry

     The total energy is the sum of the following terms:
     one-electron contribution =     -69.27279009 Ry
     hartree contribution      =      36.19571051 Ry
     xc contribution           =      -8.83215135 Ry
     ewald contribution        =       7.37918444 Ry
     one-center paw contrib.   =      -9.50950364 Ry

     convergence has been achieved in   5 iterations

     negative rho (up, down):  7.129E-04 0.000E+00

     Forces acting on atoms (cartesian axes, Ry/au):

     atom    1 type  1   force =     0.00162247   -0.00114266   -0.00202081
     atom    2 type  2   force =     0.00004314    0.00086919    0.00153401
     atom    3 type  2   force =    -0.00166560    0.00027346    0.00048680

     Total force =     0.003771     Total SCF correction =     0.000005
     Energy error            =      4.2E-05 Ry
     Gradient error          =      2.0E-03 Ry/Bohr

     number of scf cycles    =   3
     number of bfgs steps    =   2

     energy             old  =     -44.0395083715 Ry
     energy             new  =     -44.0395501224 Ry

     CASE: energy            _new < energy            _old

     new trust radius        =       0.0057989258 bohr
     new conv_thr            =       0.0000000100 Ry


ATOMIC_POSITIONS (angstrom)
O                0.4277851786        1.0001521984        1.1737804388
H                1.3969406231        0.9783397675        1.1353231669
H                0.1464641982        0.5422130341        0.3661293943



     Writing config-only to output data dir /home/ys/Research/PSID_server_room/qe/water_relax/pwscf.save/ :
     XML data file
     NEW-OLD atomic charge density approx. for the potential

     negative rho (up, down):  7.192E-04 0.000E+00

     total cpu time spent up to now is       54.3 secs

     Self-consistent Calculation

     iteration #  1     ecut=    50.00 Ry     beta= 0.70
     Davidson diagonalization with overlap
     ethr =  1.00E-06,  avg # of iterations =  3.0

     Threshold (ethr) on eigenvalues was too large:
     Diagonalizing with lowered threshold

     Davidson diagonalization with overlap
     ethr =  5.90E-08,  avg # of iterations =  2.0

     negative rho (up, down):  7.157E-04 0.000E+00

     total cpu time spent up to now is       57.1 secs

     total energy              =     -44.03956658 Ry
     estimated scf accuracy    <       0.00000452 Ry

     iteration #  2     ecut=    50.00 Ry     beta= 0.70
     Davidson diagonalization with overlap
     ethr =  5.65E-08,  avg # of iterations =  2.0

     negative rho (up, down):  7.141E-04 0.000E+00

     total cpu time spent up to now is       59.2 secs

     total energy              =     -44.03956714 Ry
     estimated scf accuracy    <       0.00000132 Ry

     iteration #  3     ecut=    50.00 Ry     beta= 0.70
     Davidson diagonalization with overlap
     ethr =  1.65E-08,  avg # of iterations =  2.0

     negative rho (up, down):  7.138E-04 0.000E+00

     total cpu time spent up to now is       61.6 secs

     total energy              =     -44.03956744 Ry
     estimated scf accuracy    <       0.00000010 Ry

     iteration #  4     ecut=    50.00 Ry     beta= 0.70
     Davidson diagonalization with overlap
     ethr =  1.27E-09,  avg # of iterations =  1.0

     negative rho (up, down):  7.138E-04 0.000E+00

     total cpu time spent up to now is       64.0 secs

     total energy              =     -44.03956744 Ry
     estimated scf accuracy    <       0.00000002 Ry

     iteration #  5     ecut=    50.00 Ry     beta= 0.70
     Davidson diagonalization with overlap
     ethr =  2.08E-10,  avg # of iterations =  2.0

     negative rho (up, down):  7.137E-04 0.000E+00

     total cpu time spent up to now is       66.2 secs

     End of self-consistent calculation

          k = 0.0000 0.0000 0.0000 ( 67942 PWs)   bands (ev):

   -25.2549 -13.0487  -9.2800  -7.1879

     highest occupied level (ev):    -7.1879

!    total energy              =     -44.03956744 Ry
     estimated scf accuracy    <          6.7E-10 Ry

     The total energy is the sum of the following terms:
     one-electron contribution =     -69.28374409 Ry
     hartree contribution      =      36.20150696 Ry
     xc contribution           =      -8.83310619 Ry
     ewald contribution        =       7.38497771 Ry
     one-center paw contrib.   =      -9.50920183 Ry

     convergence has been achieved in   5 iterations

     negative rho (up, down):  7.137E-04 0.000E+00

     Forces acting on atoms (cartesian axes, Ry/au):

     atom    1 type  1   force =    -0.00021093    0.00019391    0.00033602
     atom    2 type  2   force =     0.00039955    0.00002145    0.00003906
     atom    3 type  2   force =    -0.00018862   -0.00021536   -0.00037508

     Total force =     0.000761     Total SCF correction =     0.000012
     Energy error            =      1.7E-05 Ry
     Gradient error          =      4.0E-04 Ry/Bohr

     bfgs converged in   4 scf cycles and   3 bfgs steps
     (criteria: energy <  1.0E-04 Ry, force <  1.0E-03 Ry/Bohr)

     End of BFGS Geometry Optimization

     Final energy             =     -44.0395674404 Ry

     File /home/ys/Research/PSID_server_room/qe/water_relax/pwscf.bfgs deleted, as requested
Begin final coordinates

ATOMIC_POSITIONS (angstrom)
O                0.4277851786        1.0001521984        1.1737804388
H                1.3969406231        0.9783397675        1.1353231669
H                0.1464641982        0.5422130341        0.3661293943
End final coordinates



     Writing all to output data dir /home/ys/Research/PSID_server_room/qe/water_relax/pwscf.save/ :
     XML data file, charge density, pseudopotentials, collected wavefunctions

     init_run     :      2.05s CPU      2.31s WALL (       1 calls)
     electrons    :     47.74s CPU     53.22s WALL (       4 calls)
     update_pot   :      3.17s CPU      3.59s WALL (       3 calls)
     forces       :      6.51s CPU      7.32s WALL (       4 calls)

     Called by init_run:
     wfcinit      :      0.07s CPU      0.08s WALL (       1 calls)
     potinit      :      1.03s CPU      1.17s WALL (       1 calls)
     hinit0       :      0.31s CPU      0.35s WALL (       1 calls)

     Called by electrons:
     c_bands      :      3.64s CPU      3.75s WALL (      26 calls)
     sum_band     :     10.27s CPU     11.71s WALL (      26 calls)
     v_of_rho     :     22.43s CPU     24.86s WALL (      28 calls)
     newd         :      8.54s CPU     10.20s WALL (      28 calls)
     PAW_pot      :      0.72s CPU      0.73s WALL (      31 calls)
     mix_rho      :      3.60s CPU      3.81s WALL (      26 calls)

     Called by c_bands:
     init_us_2    :      0.17s CPU      0.17s WALL (      56 calls)
     regterg      :      3.51s CPU      3.62s WALL (      26 calls)

     Called by *egterg:
     rdiaghg      :      0.00s CPU      0.00s WALL (      77 calls)
     h_psi        :      3.21s CPU      3.32s WALL (      83 calls)
     s_psi        :      0.05s CPU      0.05s WALL (      83 calls)
     g_psi        :      0.01s CPU      0.01s WALL (      56 calls)

     Called by h_psi:
     h_psi:calbec :      0.15s CPU      0.15s WALL (      83 calls)
     vloc_psi     :      3.00s CPU      3.11s WALL (      83 calls)
     add_vuspsi   :      0.05s CPU      0.05s WALL (      83 calls)

     General routines
     calbec       :      0.24s CPU      0.24s WALL (     128 calls)
     fft          :     23.59s CPU     25.42s WALL (     341 calls)
     ffts         :      0.81s CPU      0.86s WALL (      54 calls)
     fftw         :      2.87s CPU      3.00s WALL (     378 calls)
     interpolate  :      2.59s CPU      2.79s WALL (      28 calls)

     Parallel routines

     PWSCF        :   1m 1.08s CPU   1m 8.35s WALL


   This run was terminated on:   0:37:29  10Feb2025            

=------------------------------------------------------------------------------=
   JOB DONE.
=------------------------------------------------------------------------------=
