
                                 *****************
                                 * O   R   C   A *
                                 *****************

                                            #,                                       
                                            ###                                      
                                            ####                                     
                                            #####                                    
                                            ######                                   
                                           ########,                                 
                                     ,,################,,,,,                         
                               ,,#################################,,                 
                          ,,##########################################,,             
                       ,#########################################, ''#####,          
                    ,#############################################,,   '####,        
                  ,##################################################,,,,####,       
                ,###########''''           ''''###############################       
              ,#####''   ,,,,##########,,,,          '''####'''          '####       
            ,##' ,,,,###########################,,,                        '##       
           ' ,,###''''                  '''############,,,                           
         ,,##''                                '''############,,,,        ,,,,,,###''
      ,#''                                            '''#######################'''  
     '                                                          ''''####''''         
             ,#######,   #######,   ,#######,      ##                                
            ,#'     '#,  ##    ##  ,#'     '#,    #''#        ,####,   ,####,        
            ##       ##  ##   ,#'  ##            #'  '#       #'       #'  '#        
            ##       ##  #######   ##           ,######,      #####,   #    #        
            '#,     ,#'  ##    ##  '#,     ,#' ,#      #,     #,   #   #,  ,#        
             '#######'   ##     ##  '#######'  #'      '#     '####' # '####'        



                #########################################################
                #                        -***-                          #
                #          Department of theory and spectroscopy        #
                #                                                       #
                #                      Frank Neese                      #
                #                                                       #
                #     Directorship, Architecture, Infrastructure        #
                #                    SHARK, DRIVERS                     #
                #        Core code/Algorithms in most modules           #
                #                                                       #
                #        Max Planck Institute fuer Kohlenforschung      #
                #                Kaiser Wilhelm Platz 1                 #
                #                 D-45470 Muelheim/Ruhr                 #
                #                      Germany                          #
                #                                                       #
                #                  All rights reserved                  #
                #                        -***-                          #
                #########################################################


                         Program Version 6.0.1  -  RELEASE   -


 With contributions from (in alphabetic order):
[Max-Planck-Institut fuer Kohlenforschung]                               
  Daniel Aravena         : Magnetic Suceptibility                        
  Michael Atanasov       : Ab Initio Ligand Field Theory (pilot matlab implementation)
  Alexander A. Auer      : GIAO ZORA, VPT2 properties, NMR spectrum      
  Ute Becker             : All parallelization in ORCA, NUMFREQ, NUMCALC 
  Giovanni Bistoni       : ED, misc. LED, open-shell LED, HFLD           
  Martin Brehm           : Molecular dynamics                            
  Dmytro Bykov           : pre 5.0 version of the SCF Hessian            
  Marcos Casanova-Páez   : Triplet and SCS-CIS(D). UHF-(DLPNO)-IP/EA/STEOM-CCSD. UHF-CVS-IP/STEOM-CCSD   
  Vijay G. Chilkuri      : MRCI spin determinant printing, contributions to CSF-ICE 
  Pauline Colinet        : FMM embedding                                 
  Dipayan Datta          : RHF DLPNO-CCSD density                        
  Achintya Kumar Dutta   : EOM-CC, STEOM-CC                              
  Nicolas Foglia         : Exact transition moments, OPA infrastructure, MCD improvements    
  Dmitry Ganyushin       : Spin-Orbit,Spin-Spin,Magnetic field MRCI      
  Miquel Garcia-Rates    : C-PCM and meta-GGA Hessian, CCSD/C-PCM, Gaussian charge scheme 
  Tiago L. C. Gouveia    : GS-ROHF, GS-ROCIS                             
  Yang Guo               : DLPNO-NEVPT2, F12-NEVPT2, CIM, IAO-localization        
  Andreas Hansen         : Spin unrestricted coupled pair/coupled cluster methods 
  Ingolf Harden          : AUTO-CI MPn and infrastructure                
  Benjamin Helmich-Paris : MC-RPA, TRAH-(SCF,CASSCF), AVAS, COSX integrals, SCF dyn. polar. 
  Lee Huntington         : MR-EOM, pCC                                   
  Robert Izsak           : Overlap fitted RIJCOSX, COSX-SCS-MP3, EOM     
  Riya Kayal             : Wick's Theorem for AUTO-CI, AUTO-CI UHF-CCSDT 
  Emily Kempfer          : AUTO-CI, RHF CISDT and CCSDT                  
  Christian Kollmar      : KDIIS, OOCD, Brueckner-CCSD(T), CCSD density, CASPT2, CASPT2-K, improved NEVPT2 
  Axel Koslowski         : Symmetry handling                             
  Simone Kossmann        : meta-GGA functionals, TD-DFT gradient, OOMP2, (MP2 Hessian; deprecated post 5.0) 
  Lucas Lang             : DCDCAS                                        
  Marvin Lechner         : AUTO-CI (C++ implementation), FIC-MRCC        
  Spencer Leger          : CASSCF response                               
  Dagmar Lenk            : GEPOL surface, SMD, ORCA-2-JSON               
  Dimitrios Liakos       : Extrapolation schemes; Compound Job, initial MDCI parallelization 
  Dimitrios Manganas     : Further ROCIS development; embedding schemes. LFT, Crystal Embedding 
  Dimitrios Pantazis     : SARC Basis sets                               
  Anastasios Papadopoulos: AUTO-CI, single reference methods and gradients 
  Taras Petrenko         : pre 6.0 DFT Hessian and TD-DFT gradient, (ASA, deprecated), ECA, 1-Electron XAS/XES, NRVS 
  Peter Pinski           : DLPNO-MP2, DLPNO-MP2 Gradient                 
  Christoph Reimann      : Effective Core Potentials                     
  Marius Retegan         : Local ZFS, SOC                                
  Christoph Riplinger    : Optimizer, TS searches, QM/MM, DLPNO-CCSD(T), (RO)-DLPNO pert. Triples 
  Michael Roemelt        : Original ROCIS implementation                 
  Masaaki Saitow         : Open-shell DLPNO-CCSD energy and density      
  Barbara Sandhoefer     : DKH picture change effects                    
  Kantharuban Sivalingam : CASSCF convergence/infrastructure, NEVPT2 and variants, FIC-MRCI 
  Bernardo de Souza      : ESD, SOC TD-DFT                               
  Georgi L. Stoychev     : AutoAux, RI-MP2 NMR, DLPNO-MP2 response, X2C  
  Van Anh Tran           : RI-MP2 g-tensors                              
  Willem Van den Heuvel  : Paramagnetic NMR                              
  Zikuan Wang            : NOTCH, Electric field optimization            
  Frank Wennmohs         : Technical directorship and infrastructure     
  Hang Xu                : AUTO-CI-Response properties                   
                                                                         
[FACCTs GmbH]                                                            
  Markus Bursch, Miquel Garcia-Rates, Christoph Riplinger, Bernardo de Souza, Georgi L. Stoychev 
                                                                 
  APM, Basis sets (HGBS, AHGBS, def-TZVP (Ac-Lr), def2-XVPD (La-Lu)), CI-OPT, improved COSX, DLPNO-Multilevel,           
  DOCKER, DRACO, updates on ESD, GOAT, IRC, LR-CPCM, MBIS, meta-GGA TD-DFT gradient, ML-optimized integration grids, 
  MM, NACMEs, nearIR, NEB, NEB-TS, NL-DFT gradient (VV10), 2- and 3-layer-ONIOM, interface openCOSMO-RS, QMMM,   
  Crystal-QMMM, SF, symmetry and pop. for TD-DFT, r2SCAN hybrids, SOLVATOR                                   
                                                                         
[Other institutions]                                                     
  V. Asgeirsson          : NEB                                           
  Christoph Bannwarth    : sTDA-DFT, sTD-DFT, PBEh-3c, B97-3c, D3        
  Sebastian Ehlert       : rSCAN, r2SCAN, r2SCAN-3c, D4, dhf basis sets  
  Marvin Friede          : D4 for Fr, Ra, Ac-Lr                          
  Lars Goerigk           : TD-DFT with DH, B97 family of functionals     
  Stefan Grimme          : VdW corrections, initial TS optimization, DFT functionals, gCP, sTDA/sTD-DF 
  Waldemar Hujo          : DFT-NL                                        
  H. Jonsson             : NEB                                           
  Holger Kruse           : gCP                                           
  Marcel Mueller         : wB97X-3c, vDZP basis set                      
  Hagen Neugebauer       : wr2SCAN                                       
  Tobias Risthaus        : range-separated hybrid DFT                    
  Lukas Wittmann         : regularized MP2, r2SCAN double-hybrids, wr2SCAN        
                                                                         
We gratefully acknowledge several colleagues who have allowed us to      
interface, adapt or use parts of their codes:                            
  Ed Valeev, F. Pavosevic, A. Kumar             : LibInt (2-el integral package), F12 methods 
  Garnet Chan, S. Sharma, J. Yang, R. Olivares  : DMRG                   
  Ulf Ekstrom                                   : XCFun DFT Library      
  Mihaly Kallay                                 : mrcc  (arbitrary order and MRCC methods)
  Frank Weinhold                                : gennbo (NPA and NBO analysis)           
  Simon Mueller                                 : openCOSMO-RS                            
  Christopher J. Cramer and Donald G. Truhlar   : smd solvation model                     
  S Lehtola, MJT Oliveira, MAL Marques          : LibXC Library                           
  Liviu Ungur et al                             : ANISO software                          


 Your calculation uses the libint2 library for the computation of 2-el integrals
 For citations please refer to: http://libint.valeyev.net

 Your ORCA version has been built with support for libXC version: 6.2.2
 For citations please refer to: https://libxc.gitlab.io

 This ORCA versions uses:
   CBLAS   interface :  Fast vector & matrix operations
   LAPACKE interface :  Fast linear algebra routines
   SCALAPACK package :  Parallel linear algebra routines
   Shared memory     :  Shared parallel matrices
   BLAS/LAPACK       :  OpenBLAS 0.3.27  USE64BITINT DYNAMIC_ARCH NO_AFFINITY SkylakeX SINGLE_THREADED
        Core in use  :  SkylakeX
   Copyright (c) 2011-2014, The OpenBLAS Project


NOTE: MaxCore=2000 MB was set to SCF,MP2,MDCI,CIPSI,MRCI and CIS
      => If you want to overwrite this, your respective input block should be placed after the MaxCore statement
Your calculation utilizes the atom-pairwise dispersion correction
with the Becke-Johnson damping scheme (D3BJ)


Warning: RI is on but no J-basis has been assigned. Assigning Def2/J (nothing to worry about!)
================================================================================

----- Orbital basis set information -----
Your calculation utilizes the basis: def2-SVP
   F. Weigend and R. Ahlrichs, Phys. Chem. Chem. Phys. 7, 3297 (2005).

----- AuxJ basis set information -----
Your calculation utilizes the auxiliary basis: def2/J
   F. Weigend, Phys. Chem. Chem. Phys. 8, 1057 (2006).

================================================================================
                                        WARNINGS
                       Please study these warnings very carefully!
================================================================================

WARNING: Old DensityContainer found on disk!
         Will remove this file - 
         If you want to keep old densities, please start your calculation with a different basename. 


WARNING: Geometry Optimization
  ===> : Switching off AutoStart
         For restart on a previous wavefunction, please use MOREAD

================================================================================
                                       INPUT FILE
================================================================================
NAME = 4nitroaniline_water_2.inp
|  1> ! B3LYP def2-SVP OPT TightSCF D3BJ
|  2> 
|  3> 
|  4> %maxcore 2000
|  5> 
|  6> %pal
|  7> nprocs 20
|  8> end
|  9> 
| 10> * xyz 0 1
| 11> O         -2.27348        7.87686       -0.00014
| 12> O         -2.27346        5.71038       -0.00041
| 13> N         -2.84417        6.79360       -0.00015
| 14> N         -8.46908        6.79363        0.00129
| 15> C         -4.30401        6.79362        0.00010
| 16> C         -7.10492        6.79362        0.00045
| 17> C         -4.99421        8.00982        0.00035
| 18> C         -4.99421        5.57742        0.00001
| 19> C         -6.38039        8.00998        0.00051
| 20> C         -6.38039        5.57726        0.00018
| 21> H         -4.42543        8.93920        0.00036
| 22> H         -4.42542        4.64804       -0.00022
| 23> H         -6.92362        8.95844        0.00074
| 24> H         -6.92363        4.62881        0.00014
| 25> H         -8.98867        7.65909       -0.00303
| 26> H         -8.98868        5.92818       -0.00326
| 27> O         -8.67638        6.68503        1.47785
| 28> H         -7.72412        6.52408        1.43103
| 29> H         -9.00861        6.26965        0.67045
| 30> *
| 31> 
| 32>                          ****END OF INPUT****
================================================================================

                       *****************************
                       * Geometry Optimization Run *
                       *****************************

Geometry optimization settings:
Update method            Update   .... BFGS
Choice of coordinates    CoordSys .... (2022) Redundant Internals
Initial Hessian          InHess   .... Almloef's Model
Max. no of cycles        MaxIter  .... 57

Convergence Tolerances:
Energy Change            TolE     ....  5.0000e-06 Eh
Max. Gradient            TolMAXG  ....  3.0000e-04 Eh/bohr
RMS Gradient             TolRMSG  ....  1.0000e-04 Eh/bohr
Max. Displacement        TolMAXD  ....  4.0000e-03 bohr
RMS Displacement         TolRMSD  ....  2.0000e-03 bohr
Strict Convergence                .... False

------------------------------------------------------------------------------
                        ORCA OPTIMIZATION COORDINATE SETUP
------------------------------------------------------------------------------

The optimization will be done in redundant internal coordinates (2022)
Making redundant internal coordinates   ...  (2022 redundants) done
Evaluating the initial hessian          ...  (Almloef) done
Evaluating the coordinates              ...  done
Calculating the B-matrix                .... done
Calculating the G-matrix                .... done
Diagonalizing the G-matrix              .... done
The first mode is                       ....   61
The number of degrees of freedom        ....   51

    -----------------------------------------------------------------
                    Redundant Internal Coordinates


    -----------------------------------------------------------------
         Definition                    Initial Value    Approx d2E/dq
    -----------------------------------------------------------------
      1. B(N   2,O   1)                  1.2244         0.921019   
      2. B(N   2,O   0)                  1.2244         0.920931   
      3. B(C   4,N   2)                  1.4598         0.432962   
      4. B(C   5,N   3)                  1.3642         0.615320   
      5. B(C   6,C   4)                  1.3984         0.605814   
      6. B(C   7,C   4)                  1.3984         0.605814   
      7. B(C   8,C   5)                  1.4158         0.568309   
      8. B(C   8,C   6)                  1.3862         0.633626   
      9. B(C   9,C   7)                  1.3862         0.633626   
     10. B(C   9,C   5)                  1.4158         0.568309   
     11. B(H  10,C   6)                  1.0896         0.360611   
     12. B(H  11,C   7)                  1.0896         0.360605   
     13. B(H  12,C   8)                  1.0930         0.356137   
     14. B(H  13,C   9)                  1.0930         0.356142   
     15. B(H  14,N   3)                  1.0095         0.433564   
     16. B(H  15,N   3)                  1.0095         0.433568   
     17. B(O  16,N   3)                  1.4950         0.340806   
     18. B(H  17,O  16)                  0.9669         0.506941   
     19. B(H  18,O  16)                  0.9669         0.507022   
     20. B(H  18,H  15)                  0.7556         0.235527   
     21. B(H  18,N   3)                  1.0067         0.438003   
     22. A(O   0,N   2,O   1)          124.4354         0.488208   
     23. A(O   1,N   2,C   4)          117.7839         0.428369   
     24. A(O   0,N   2,C   4)          117.7807         0.428361   
     25. A(H  14,N   3,H  15)          118.0393         0.303449   
     26. A(H  14,N   3,H  18)           99.9757         0.303944   
     27. A(C   5,N   3,H  14)          120.9790         0.358327   
     28. A(H  15,N   3,H  18)           44.0185         0.303944   
     29. A(H  14,N   3,O  16)           89.7212         0.322638   
     30. A(O  16,N   3,H  18)           39.7676         0.323177   
     31. A(C   5,N   3,H  15)          120.9789         0.358328   
     32. A(H  15,N   3,O  16)           82.5765         0.322638   
     33. A(C   5,N   3,H  18)          122.4355         0.358949   
     34. A(C   5,N   3,O  16)           98.0056         0.382426   
     35. A(C   6,C   4,C   7)          120.8497         0.430469   
     36. A(N   2,C   4,C   6)          119.5759         0.402865   
     37. A(N   2,C   4,C   7)          119.5744         0.402865   
     38. A(N   3,C   5,C   8)          120.7799         0.423975   
     39. A(C   8,C   5,C   9)          118.4394         0.420732   
     40. A(N   3,C   5,C   9)          120.7807         0.423975   
     41. A(C   8,C   6,H  10)          121.4600         0.354296   
     42. A(C   4,C   6,H  10)          118.9583         0.351614   
     43. A(C   4,C   6,C   8)          119.5818         0.433956   
     44. A(C   4,C   7,C   9)          119.5818         0.433956   
     45. A(C   9,C   7,H  11)          121.4604         0.354295   
     46. A(C   4,C   7,H  11)          118.9578         0.351613   
     47. A(C   6,C   8,H  12)          119.8085         0.353547   
     48. A(C   5,C   8,C   6)          120.7737         0.429002   
     49. A(C   5,C   8,H  12)          119.4178         0.347113   
     50. A(C   5,C   9,C   7)          120.7737         0.429002   
     51. A(C   7,C   9,H  13)          119.8092         0.353548   
     52. A(C   5,C   9,H  13)          119.4171         0.347113   
     53. A(N   3,H  15,H  18)           67.7960         0.240116   
     54. A(N   3,O  16,H  17)           80.0786         0.331054   
     55. A(H  17,O  16,H  18)          103.0890         0.319186   
     56. A(N   3,O  16,H  18)           41.7613         0.331063   
     57. A(H  15,H  18,O  16)          158.3883         0.245565   
     58. A(N   3,H  18,O  16)           98.4711         0.311695   
     59. A(N   3,H  18,H  15)           68.1855         0.240464   
     60. D(C   7,C   4,N   2,O   0)    179.9959         0.014764   
     61. D(C   6,C   4,N   2,O   1)   -179.9976         0.014764   
     62. D(C   7,C   4,N   2,O   1)     -0.0012         0.014764   
     63. D(C   6,C   4,N   2,O   0)     -0.0005         0.014764   
     64. D(C   8,C   5,N   3,H  15)    179.7014         0.035812   
     65. D(C   8,C   5,N   3,O  16)    -94.1831         0.035812   
     66. D(C   8,C   5,N   3,H  18)   -128.0526         0.035812   
     67. D(C   8,C   5,N   3,H  14)      0.3310         0.035812   
     68. D(C   9,C   5,N   3,H  15)     -0.3307         0.035812   
     69. D(C   9,C   5,N   3,H  14)   -179.7011         0.035812   
     70. D(H  10,C   6,C   4,C   7)   -179.9968         0.025328   
     71. D(C   8,C   6,C   4,C   7)     -0.0000         0.025328   
     72. D(H  10,C   6,C   4,N   2)     -0.0004         0.025328   
     73. D(C   8,C   6,C   4,N   2)    179.9963         0.025328   
     74. D(C   9,C   7,C   4,N   2)   -179.9968         0.025328   
     75. D(H  11,C   7,C   4,C   6)    179.9979         0.025328   
     76. D(H  11,C   7,C   4,N   2)      0.0016         0.025328   
     77. D(C   9,C   7,C   4,C   6)     -0.0004         0.025328   
     78. D(H  12,C   8,C   6,C   4)    179.9979         0.027858   
     79. D(C   5,C   8,C   6,H  10)    179.9979         0.027858   
     80. D(C   5,C   8,C   6,C   4)      0.0013         0.027858   
     81. D(H  12,C   8,C   5,C   9)   -179.9986         0.022150   
     82. D(H  12,C   8,C   5,N   3)     -0.0300         0.022150   
     83. D(C   6,C   8,C   5,C   9)     -0.0020         0.022150   
     84. D(H  12,C   8,C   6,H  10)     -0.0054         0.027858   
     85. D(C   6,C   8,C   5,N   3)    179.9666         0.022150   
     86. D(H  13,C   9,C   5,C   8)    179.9994         0.022150   
     87. D(H  13,C   9,C   5,N   3)      0.0308         0.022150   
     88. D(C   7,C   9,C   5,C   8)      0.0015         0.022150   
     89. D(C   5,C   9,C   7,C   4)     -0.0003         0.027858   
     90. D(C   7,C   9,C   5,N   3)   -179.9671         0.022150   
     91. D(H  13,C   9,C   7,H  11)      0.0034         0.027858   
     92. D(H  13,C   9,C   7,C   4)   -179.9982         0.027858   
     93. D(C   5,C   9,C   7,H  11)   -179.9987         0.027858   
     94. D(H  18,H  15,N   3,O  16)     11.2891         0.262883   
     95. D(H  18,H  15,N   3,H  14)    -74.4124         0.262883   
     96. D(H  18,H  15,N   3,C   5)    106.1992         0.262883   
     97. D(H  18,O  16,N   3,C   5)   -132.6663         0.012340   
     98. D(H  17,O  16,N   3,H  18)    122.7572         0.012340   
     99. D(H  17,O  16,N   3,H  15)    110.4791         0.012340   
    100. D(H  17,O  16,N   3,H  14)   -131.1817         0.012340   
    101. D(H  18,O  16,N   3,H  14)    106.0611         0.012340   
    102. D(H  17,O  16,N   3,C   5)     -9.9091         0.012340   
    103. D(H  15,H  18,O  16,H  17)     -8.3642         0.359326   
    104. D(H  15,H  18,O  16,N   3)     49.9008         0.359326   
    105. D(N   3,H  18,O  16,H  17)    -58.2650         0.359326   
    106. D(O  16,H  18,H  15,N   3)    -54.5816         2.116061   
    107. D(O  16,H  18,N   3,H  15)    162.3342         0.290959   
    108. D(O  16,H  18,N   3,H  14)    -77.3452         0.290959   
    109. D(O  16,H  18,N   3,C   5)     59.6254         0.290959   
    110. D(H  15,H  18,N   3,O  16)   -162.3342         0.290959   
    111. D(H  15,H  18,N   3,H  14)    120.3206         0.290959   
    112. D(H  15,H  18,N   3,C   5)   -102.7088         0.290959   
    -----------------------------------------------------------------

Number of atoms                         .... 19
Number of degrees of freedom            .... 112


         *************************************************************
         *                GEOMETRY OPTIMIZATION CYCLE   1            *
         *************************************************************
---------------------------------
CARTESIAN COORDINATES (ANGSTROEM)
---------------------------------
  O     -2.273480    7.876860   -0.000140
  O     -2.273460    5.710380   -0.000410
  N     -2.844170    6.793600   -0.000150
  N     -8.469080    6.793630    0.001290
  C     -4.304010    6.793620    0.000100
  C     -7.104920    6.793620    0.000450
  C     -4.994210    8.009820    0.000350
  C     -4.994210    5.577420    0.000010
  C     -6.380390    8.009980    0.000510
  C     -6.380390    5.577260    0.000180
  H     -4.425430    8.939200    0.000360
  H     -4.425420    4.648040   -0.000220
  H     -6.923620    8.958440    0.000740
  H     -6.923630    4.628810    0.000140
  H     -8.988670    7.659090   -0.003030
  H     -8.988680    5.928180   -0.003260
  O     -8.676380    6.685030    1.477850
  H     -7.724120    6.524080    1.431030
  H     -9.008610    6.269650    0.670450

----------------------------
CARTESIAN COORDINATES (A.U.)
----------------------------
  NO LB      ZA    FRAG     MASS         X           Y           Z
   0 O     8.0000    0    15.999   -4.296255   14.885108   -0.000265
   1 O     8.0000    0    15.999   -4.296217   10.791054   -0.000775
   2 N     7.0000    0    14.007   -5.374702   12.838043   -0.000283
   3 N     7.0000    0    14.007  -16.004242   12.838100    0.002438
   4 C     6.0000    0    12.011   -8.133400   12.838081    0.000189
   5 C     6.0000    0    12.011  -13.426353   12.838081    0.000850
   6 C     6.0000    0    12.011   -9.437689   15.136366    0.000661
   7 C     6.0000    0    12.011   -9.437689   10.539796    0.000019
   8 C     6.0000    0    12.011  -12.057190   15.136669    0.000964
   9 C     6.0000    0    12.011  -12.057190   10.539494    0.000340
  10 H     1.0000    0     1.008   -8.362851   16.892640    0.000680
  11 H     1.0000    0     1.008   -8.362832    8.783523   -0.000416
  12 H     1.0000    0     1.008  -13.083746   16.928998    0.001398
  13 H     1.0000    0     1.008  -13.083765    8.747183    0.000265
  14 H     1.0000    0     1.008  -16.986125   14.473583   -0.005726
  15 H     1.0000    0     1.008  -16.986144   11.202637   -0.006161
  16 O     8.0000    0    15.999  -16.395982   12.632876    2.792732
  17 H     1.0000    0     1.008  -14.596471   12.328724    2.704255
  18 H     1.0000    0     1.008  -17.023806   11.847921    1.266967

--------------------------------
INTERNAL COORDINATES (ANGSTROEM)
--------------------------------
 O      0   0   0     0.000000000000     0.00000000     0.00000000
 O      1   0   0     2.166480016917     0.00000000     0.00000000
 N      2   1   0     1.224367404050    27.78261847     0.00000000
 N      3   2   1     5.624910184403   117.78345479   180.00239423
 C      3   2   1     1.459840021543   117.78393355   179.99690543
 C      4   3   2     1.364160258657     0.02061301   270.32408191
 C      5   3   2     1.398398563536   119.57592810   180.00237359
 C      5   3   2     1.398398544085   119.57435589     0.00000000
 C      7   5   3     1.386180018468   119.58175611   179.99632122
 C      8   5   3     1.386180019658   119.58175466   180.00320130
 H      7   5   3     1.089613634689   118.95825033     0.00000000
 H      8   5   3     1.089618878966   118.95780235     0.00000000
 H      9   7   5     1.093012011553   119.80851710   179.99791803
 H     10   8   5     1.093008280710   119.80923128   180.00178669
 H      4   3   2     1.009461956737   120.97895537   180.30082447
 H      4   3   2     1.009459541042   120.97908465   359.69599637
 O      4   3   2     1.494990529602    97.98509819    85.79933874
 H     17   4   3     0.966900265022    80.07858578   350.08927033
 H     16   4   3     0.755568745979    67.79596587   106.17512812

---------------------------
INTERNAL COORDINATES (A.U.)
---------------------------
 O      0   0   0     0.000000000000     0.00000000     0.00000000
 O      1   0   0     4.094053906586     0.00000000     0.00000000
 N      2   1   0     2.313719080954    27.78261847     0.00000000
 N      3   2   1    10.629539776426   117.78345479   180.00239423
 C      3   2   1     2.758697840055   117.78393355   179.99690543
 C      4   3   2     2.577889291642     0.02061301   270.32408191
 C      5   3   2     2.642590311152   119.57592810   180.00237359
 C      5   3   2     2.642590274395   119.57435589     0.00000000
 C      7   5   3     2.619500607218   119.58175611   179.99632122
 C      8   5   3     2.619500609468   119.58175466   180.00320130
 H      7   5   3     2.059071361349   118.95825033     0.00000000
 H      8   5   3     2.059081271597   118.95780235     0.00000000
 H      9   7   5     2.065493362922   119.80851710   179.99791803
 H     10   8   5     2.065486312649   119.80923128   180.00178669
 H      4   3   2     1.907606640846   120.97895537   180.30082447
 H      4   3   2     1.907602075843   120.97908465   359.69599637
 O      4   3   2     2.825122673754    97.98509819    85.79933874
 H     17   4   3     1.827176699708    80.07858578   350.08927033
 H     16   4   3     1.427818005250    67.79596587   106.17512812

---------------------
BASIS SET INFORMATION
---------------------
There are 4 groups of distinct atoms

 Group   1 Type O   : 7s4p1d contracted to 3s2p1d pattern {511/31/1}
 Group   2 Type N   : 7s4p1d contracted to 3s2p1d pattern {511/31/1}
 Group   3 Type C   : 7s4p1d contracted to 3s2p1d pattern {511/31/1}
 Group   4 Type H   : 4s1p contracted to 2s1p pattern {31/1}

Atom   0O    basis set group =>   1
Atom   1O    basis set group =>   1
Atom   2N    basis set group =>   2
Atom   3N    basis set group =>   2
Atom   4C    basis set group =>   3
Atom   5C    basis set group =>   3
Atom   6C    basis set group =>   3
Atom   7C    basis set group =>   3
Atom   8C    basis set group =>   3
Atom   9C    basis set group =>   3
Atom  10H    basis set group =>   4
Atom  11H    basis set group =>   4
Atom  12H    basis set group =>   4
Atom  13H    basis set group =>   4
Atom  14H    basis set group =>   4
Atom  15H    basis set group =>   4
Atom  16O    basis set group =>   1
Atom  17H    basis set group =>   4
Atom  18H    basis set group =>   4
---------------------------------
AUXILIARY/J BASIS SET INFORMATION
---------------------------------
There are 4 groups of distinct atoms

 Group   1 Type O   : 12s5p4d2f1g contracted to 6s4p3d1f1g pattern {711111/2111/211/2/1}
 Group   2 Type N   : 12s5p4d2f1g contracted to 6s4p3d1f1g pattern {711111/2111/211/2/1}
 Group   3 Type C   : 12s5p4d2f1g contracted to 6s4p3d1f1g pattern {711111/2111/211/2/1}
 Group   4 Type H   : 5s2p1d contracted to 3s1p1d pattern {311/2/1}

Atom   0O    basis set group =>   1
Atom   1O    basis set group =>   1
Atom   2N    basis set group =>   2
Atom   3N    basis set group =>   2
Atom   4C    basis set group =>   3
Atom   5C    basis set group =>   3
Atom   6C    basis set group =>   3
Atom   7C    basis set group =>   3
Atom   8C    basis set group =>   3
Atom   9C    basis set group =>   3
Atom  10H    basis set group =>   4
Atom  11H    basis set group =>   4
Atom  12H    basis set group =>   4
Atom  13H    basis set group =>   4
Atom  14H    basis set group =>   4
Atom  15H    basis set group =>   4
Atom  16O    basis set group =>   1
Atom  17H    basis set group =>   4
Atom  18H    basis set group =>   4
--------------------------------------------------------------------------
By default, for Open MPI 4.0 and later, infiniband ports on a device
are not used by default.  The intent is to use UCX for these devices.
You can override this policy by setting the btl_openib_allow_ib MCA parameter
to true.

  Local host:              psid01
  Local adapter:           mlx5_0
  Local port:              1

--------------------------------------------------------------------------
--------------------------------------------------------------------------
WARNING: There was an error initializing an OpenFabrics device.

  Local host:   psid01
  Local device: mlx5_0
--------------------------------------------------------------------------


           ************************************************************
           *        Program running with 20 parallel MPI-processes    *
           *              working on a common directory               *
           ************************************************************
------------------------------------------------------------------------------
                             ORCA STARTUP CALCULATIONS
                           -- RI-GTO INTEGRALS CHOSEN --
------------------------------------------------------------------------------
------------------------------------------------------------------------------
                   ___                                                        
                  /   \      - P O W E R E D   B Y -                         
                 /     \                                                     
                 |  |  |   _    _      __       _____    __    __             
                 |  |  |  | |  | |    /  \     |  _  \  |  |  /  |          
                  \  \/   | |  | |   /    \    | | | |  |  | /  /          
                 / \  \   | |__| |  /  /\  \   | |_| |  |  |/  /          
                |  |  |   |  __  | /  /__\  \  |    /   |      \           
                |  |  |   | |  | | |   __   |  |    \   |  |\   \          
                \     /   | |  | | |  |  |  |  | |\  \  |  | \   \       
                 \___/    |_|  |_| |__|  |__|  |_| \__\ |__|  \__/        
                                                                              
                      - O R C A' S   B I G   F R I E N D -                    
                                      &                                       
                       - I N T E G R A L  F E E D E R -                       
                                                                              
 v1 FN, 2020, v2 2021, v3 2022-2024                                           
------------------------------------------------------------------------------


----------------------
SHARK INTEGRAL PACKAGE
----------------------

Number of atoms                             ...     19
Number of basis functions                   ...    194
Number of shells                            ...     90
Maximum angular momentum                    ...      2
Integral batch strategy                     ... SHARK/LIBINT Hybrid
RI-J (if used) integral strategy            ... SPLIT-RIJ (Revised 2003 algorithm where possible)
Printlevel                                  ...      1
Contraction scheme used                     ... SEGMENTED contraction
Prescreening option                         ... SCHWARTZ
   Thresh                                   ... 2.500e-11
   Tcut                                     ... 2.500e-12
   Tpresel                                  ... 2.500e-12 
Coulomb Range Separation                    ... NOT USED
Exchange Range Separation                   ... NOT USED
Multipole approximations                    ... NOT USED
Finite Nucleus Model                        ... NOT USED
CABS basis                                  ... NOT available
Auxiliary Coulomb fitting basis             ... AVAILABLE
   # of basis functions in Aux-J            ...    627
   # of shells in Aux-J                     ...    205
   Maximum angular momentum in Aux-J        ...      4
Auxiliary J/K fitting basis                 ... NOT available
Auxiliary Correlation fitting basis         ... NOT available
Auxiliary 'external' fitting basis          ... NOT available

Checking pre-screening integrals            ... done (  0.0 sec) Dimension = 90
Check shell pair data                       ... done (  0.0 sec)
Shell pair information
Shell pair cut-off parameter TPreSel        ...   2.5e-12
Total number of shell pairs                 ...      4095
Shell pairs after pre-screening             ...      3613
Total number of primitive shell pairs       ...     15045
Primitive shell pairs kept                  ...      9432
          la=0 lb=0:   1087 shell pairs
          la=1 lb=0:   1313 shell pairs
          la=1 lb=1:    419 shell pairs
          la=2 lb=0:    457 shell pairs
          la=2 lb=1:    282 shell pairs
          la=2 lb=2:     55 shell pairs

Calculating one electron integrals          ... done (  0.0 sec)
Calculating RI/J V-Matrix + Cholesky decomp.... done (  0.0 sec)
Calculating Nuclear repulsion               ... done (  0.0 sec) ENN=    620.760654773057 Eh

Diagonalization of the overlap matrix:
Smallest eigenvalue                        ... 2.497e-04
Time for diagonalization                   ...    0.004 sec
Threshold for overlap eigenvalues          ... 1.000e-07
Number of eigenvalues below threshold      ... 0
Time for construction of square roots      ...    0.003 sec
Total time needed                          ...    0.012 sec

-------------------
DFT GRID GENERATION
-------------------

General Integration Accuracy     IntAcc      ... 4.388
Radial Grid Type                 RadialGrid  ... OptM3 with GC (2021)
Angular Grid (max. ang.)         AngularGrid ... 4 (Lebedev-302)
Angular grid pruning method      GridPruning ... 4 (adaptive)
Weight generation scheme         WeightScheme... mBecke (2022)
Basis function cutoff            BFCut       ... 1.0000e-11
Integration weight cutoff        WCut        ... 1.0000e-14
Partially contracted basis set               ... off
Rotationally invariant grid construction     ... off
Angular grids for H and He will be reduced by one unit

Total number of grid points                  ...    91542
Total number of batches                      ...     1440
Average number of points per batch           ...       63
Average number of grid points per atom       ...     4818

--------------------
COSX GRID GENERATION
--------------------

GRIDX 1
-------
General Integration Accuracy     IntAcc      ... 3.816
Radial Grid Type                 RadialGrid  ... OptM3 with GC (2021)
Angular Grid (max. ang.)         AngularGrid ... 1 (Lebedev-50)
Angular grid pruning method      GridPruning ... 4 (adaptive)
Weight generation scheme         WeightScheme... mBecke (2022)
Basis function cutoff            BFCut       ... 1.0000e-11
Integration weight cutoff        WCut        ... 1.0000e-14
Partially contracted basis set               ... on
Rotationally invariant grid construction     ... off
Angular grids for H and He will be reduced by one unit

Total number of grid points                  ...    11683
Total number of batches                      ...      101
Average number of points per batch           ...      115
Average number of grid points per atom       ...      615
UseSFitting                                  ... on

GRIDX 2
-------
General Integration Accuracy     IntAcc      ... 4.020
Radial Grid Type                 RadialGrid  ... OptM3 with GC (2021)
Angular Grid (max. ang.)         AngularGrid ... 2 (Lebedev-110)
Angular grid pruning method      GridPruning ... 4 (adaptive)
Weight generation scheme         WeightScheme... mBecke (2022)
Basis function cutoff            BFCut       ... 1.0000e-11
Integration weight cutoff        WCut        ... 1.0000e-14
Partially contracted basis set               ... on
Rotationally invariant grid construction     ... off
Angular grids for H and He will be reduced by one unit

Total number of grid points                  ...    25644
Total number of batches                      ...      209
Average number of points per batch           ...      122
Average number of grid points per atom       ...     1350
UseSFitting                                  ... on

GRIDX 3
-------
General Integration Accuracy     IntAcc      ... 4.338
Radial Grid Type                 RadialGrid  ... OptM3 with GC (2021)
Angular Grid (max. ang.)         AngularGrid ... 3 (Lebedev-194)
Angular grid pruning method      GridPruning ... 4 (adaptive)
Weight generation scheme         WeightScheme... mBecke (2022)
Basis function cutoff            BFCut       ... 1.0000e-11
Integration weight cutoff        WCut        ... 1.0000e-14
Partially contracted basis set               ... on
Rotationally invariant grid construction     ... off
Angular grids for H and He will be reduced by one unit

Total number of grid points                  ...    56453
Total number of batches                      ...      450
Average number of points per batch           ...      125
Average number of grid points per atom       ...     2971
UseSFitting                                  ... on
Initializing property integral containers    ... done (  0.0 sec)

SHARK setup successfully completed in   1.0 seconds

Maximum memory used throughout the entire STARTUP-calculation: 23.6 MB
[psid01:184083] 19 more processes have sent help message help-mpi-btl-openib.txt / ib port not selected
[psid01:184083] Set MCA parameter "orte_base_help_aggregate" to 0 to see all help / error messages
[psid01:184083] 19 more processes have sent help message help-mpi-btl-openib.txt / error in device init
--------------------------------------------------------------------------
By default, for Open MPI 4.0 and later, infiniband ports on a device
are not used by default.  The intent is to use UCX for these devices.
You can override this policy by setting the btl_openib_allow_ib MCA parameter
to true.

  Local host:              psid01
  Local adapter:           mlx5_0
  Local port:              1

--------------------------------------------------------------------------
--------------------------------------------------------------------------
WARNING: There was an error initializing an OpenFabrics device.

  Local host:   psid01
  Local device: mlx5_0
--------------------------------------------------------------------------


           ************************************************************
           *        Program running with 20 parallel MPI-processes    *
           *              working on a common directory               *
           ************************************************************
-------------------------------------------------------------------------------
                                 ORCA GUESS
                   Start orbitals & Density for SCF / CASSCF
-------------------------------------------------------------------------------

------------
SCF SETTINGS
------------
Hamiltonian:
 Density Functional     Method          .... DFT(GTOs)
 Exchange Functional    Exchange        .... B88
   X-Alpha parameter    XAlpha          ....  0.666667
   Becke's b parameter  XBeta           ....  0.004200
 Correlation Functional Correlation     .... LYP
 LDA part of GGA corr.  LDAOpt          .... VWN-5
 Gradients option       PostSCFGGA      .... off
 Hybrid DFT is turned on
   Fraction HF Exchange ScalHFX         ....  0.200000
   Scaling of DF-GGA-X  ScalDFX         ....  0.720000
   Scaling of DF-GGA-C  ScalDFC         ....  0.810000
   Scaling of DF-LDA-C  ScalLDAC        ....  1.000000
   Perturbative correction              ....  0.000000
   NL short-range parameter             ....  4.800000
 RI-approximation to the Coulomb term is turned on
   Number of AuxJ basis functions       .... 627
   RIJ-COSX (HFX calculated with COS-X)).... on


General Settings:
 Integral files         IntName         .... 4nitroaniline_water_2
 Hartree-Fock type      HFTyp           .... RHF
 Total Charge           Charge          ....    0
 Multiplicity           Mult            ....    1
 Number of Electrons    NEL             ....   82
 Basis Dimension        Dim             ....  194
 Nuclear Repulsion      ENuc            ....    620.7606547731 Eh

Convergence Acceleration:
 AO-DIIS                CNVDIIS         .... on
   Start iteration      DIISMaxIt       ....    12
   Startup error        DIISStart       ....  0.200000
   # of expansion vecs  DIISMaxEq       ....     5
   Bias factor          DIISBfac        ....   1.050
   Max. coefficient     DIISMaxC        ....  10.000
 MO-DIIS                CNVKDIIS        .... off
 Trust-Rad. Augm. Hess. CNVTRAH         .... auto
   Auto Start mean grad. ratio tolernc. ....  1.125000
   Auto Start start iteration           ....    50
   Auto Start num. interpolation iter.  ....    10
   Max. Number of Micro iterations      ....    24
   Max. Number of Macro iterations      .... Maxiter - #DIIS iter
   Number of Davidson start vectors     ....     2
   Converg. threshold    (grad. norm)   ....   1.000e-05
   Grad. Scal. Fac. for Micro threshold ....   0.100
   Minimum threshold for Micro iter.    ....   1.000e-02
   NR start threshold (gradient norm)   ....   1.000e-04
   Initial trust radius                 ....   0.400
   Minimum AH scaling param. (alpha)    ....   1.000
   Maximum AH scaling param. (alpha)    .... 1000.000
   Quad. conv. algorithm                .... NR
   White noise on init. David. guess    .... on
   Maximum white noise                  ....   0.010
   Pseudo random numbers                .... off
   Inactive MOs                         .... canonical
   Orbital update algorithm             .... Taylor
   Preconditioner                       .... Diag
   Full preconditioner red. dimension   ....   250
 SOSCF                  CNVSOSCF        .... on
   Start iteration      SOSCFMaxIt      ....   150
   Startup grad/error   SOSCFStart      ....  0.003300
   Hessian update       SOSCFHessUp     .... L-BFGS
 Level Shifting         CNVShift        .... on
   Level shift para.    LevelShift      ....    0.2500
   Turn off err/grad.   ShiftErr        ....    0.0010
 Zerner damping         CNVZerner       .... off
 Static damping         CNVDamp         .... on
   Fraction old density DampFac         ....    0.7000
   Max. Damping (<1)    DampMax         ....    0.9800
   Min. Damping (>=0)   DampMin         ....    0.0000
   Turn off err/grad.   DampErr         ....    0.1000

SCF Procedure:
 Maximum # iterations   MaxIter         ....   125
 SCF integral mode      SCFMode         .... Direct
   Integral package                     .... SHARK and LIBINT hybrid scheme
 Reset frequency        DirectResetFreq ....    20
 Integral Threshold     Thresh          ....  2.500e-11 Eh
 Primitive CutOff       TCut            ....  2.500e-12 Eh

Convergence Tolerance:
 Convergence Check Mode ConvCheckMode   .... Total+1el-Energy
 Convergence forced     ConvForced      .... 0
 Energy Change          TolE            ....  1.000e-08 Eh
 1-El. energy change                    ....  1.000e-05 Eh
 Orbital Gradient       TolG            ....  1.000e-05
 Orbital Rotation angle TolX            ....  1.000e-05
 DIIS Error             TolErr          ....  5.000e-07

------------------------------
INITIAL GUESS: MODEL POTENTIAL
------------------------------
Loading Hartree-Fock densities                     ... done
Calculating cut-offs                               ... done
Initializing the effective Hamiltonian             ... done
Setting up the integral package (SHARK)            ... done
Starting the Coulomb interaction                   ... done (   0.0 sec)
Making the grid                                    ... done (   0.1 sec)
Mapping shells                                     ... done
Starting the XC term evaluation                    ... done (   0.0 sec)
  promolecular density results
     # of electrons  =     82.000581745
     EX              =    -71.222382419
     EC              =     -2.868113449
     EX+EC           =    -74.090495867
Transforming the Hamiltonian                       ... done (   0.0 sec)
Diagonalizing the Hamiltonian                      ... done (   0.0 sec)
Back transforming the eigenvectors                 ... done (   0.0 sec)
Now organizing SCF variables                       ... done
                      ------------------
                      INITIAL GUESS DONE (   0.2 sec)
                      ------------------
             **** ENERGY FILE WAS UPDATED (4nitroaniline_water_2.en.tmp) ****
Finished Guess after   0.8 sec
Maximum memory used throughout the entire GUESS-calculation: 13.7 MB
[psid01:184160] 19 more processes have sent help message help-mpi-btl-openib.txt / ib port not selected
[psid01:184160] Set MCA parameter "orte_base_help_aggregate" to 0 to see all help / error messages
[psid01:184160] 19 more processes have sent help message help-mpi-btl-openib.txt / error in device init
--------------------------------------------------------------------------
By default, for Open MPI 4.0 and later, infiniband ports on a device
are not used by default.  The intent is to use UCX for these devices.
You can override this policy by setting the btl_openib_allow_ib MCA parameter
to true.

  Local host:              psid01
  Local adapter:           mlx5_0
  Local port:              1

--------------------------------------------------------------------------
--------------------------------------------------------------------------
WARNING: There was an error initializing an OpenFabrics device.

  Local host:   psid01
  Local device: mlx5_0
--------------------------------------------------------------------------


           ************************************************************
           *        Program running with 20 parallel MPI-processes    *
           *              working on a common directory               *
           ************************************************************

-------------------------------------------------------------------------------------------
                                      ORCA LEAN-SCF
                              memory conserving SCF solver
-------------------------------------------------------------------------------------------

----------------------------------------D-I-I-S--------------------------------------------
Iteration    Energy (Eh)           Delta-E    RMSDP     MaxDP     DIISErr   Damp  Time(sec)
-------------------------------------------------------------------------------------------
               ***  Starting incremental Fock matrix formation  ***
    1    -566.8979656096443023     0.00e+00  4.92e-03  1.13e-01  2.54e-01  0.700   0.4
Warning: op=0 Small HOMO/LUMO gap (   0.030) - skipping pre-diagonalization
         Will do a full diagonalization
    2    -567.0742036880227488    -1.76e-01  4.08e-03  1.05e-01  1.17e-01  0.700   0.3
                               ***Turning on AO-DIIS***
    3    -567.1457051283913415    -7.15e-02  2.12e-03  5.39e-02  5.40e-02  0.700   0.3
    4    -567.1864587035732939    -4.08e-02  3.91e-03  9.13e-02  3.20e-02  0.000   0.3
    5    -567.2758820590496498    -8.94e-02  9.30e-04  3.51e-02  1.47e-02  0.000   0.3
                              *** Initializing SOSCF ***
---------------------------------------S-O-S-C-F--------------------------------------
Iteration    Energy (Eh)           Delta-E    RMSDP     MaxDP     MaxGrad    Time(sec)
--------------------------------------------------------------------------------------
    6    -567.2772982891098081    -1.42e-03  4.50e-04  1.78e-02  3.12e-03     0.3
               *** Restarting incremental Fock matrix formation ***
    7    -567.2775003709215298    -2.02e-04  4.68e-04  1.58e-02  1.19e-03     0.4
    8    -567.2774316724188566     6.87e-05  3.46e-04  8.95e-03  3.07e-03     0.4
    9    -567.2775523634601313    -1.21e-04  3.03e-04  9.14e-03  1.69e-03     0.4
   10    -567.2775276773976429     2.47e-05  1.21e-04  3.02e-03  1.41e-03     0.4
   11    -567.2775778303736161    -5.02e-05  6.96e-05  2.14e-03  1.53e-04     0.4
   12    -567.2775778945332377    -6.42e-08  3.19e-05  1.13e-03  1.62e-04     0.4
[psid01:184226] 19 more processes have sent help message help-mpi-btl-openib.txt / ib port not selected
[psid01:184226] Set MCA parameter "orte_base_help_aggregate" to 0 to see all help / error messages
[psid01:184226] 19 more processes have sent help message help-mpi-btl-openib.txt / error in device init
   13    -567.2775792014805347    -1.31e-06  9.89e-06  2.63e-04  4.64e-05     0.4
   14    -567.2775790725155503     1.29e-07  5.80e-06  1.83e-04  1.10e-04     0.3
   15    -567.2775792412913916    -1.69e-07  2.76e-06  8.06e-05  8.83e-06     0.3
   16    -567.2775792407668405     5.25e-10  1.51e-06  3.27e-05  1.41e-05     0.3
                 **** Energy Check signals convergence ****

               *****************************************************
               *                     SUCCESS                       *
               *           SCF CONVERGED AFTER  16 CYCLES          *
               *****************************************************

Recomputing exchange energy using gridx3       ... done (    0.485 sec)
Old exchange energy                            :    -14.367865032 Eh
New exchange energy                            :    -14.367901030 Eh
Exchange energy change after final integration :     -0.000035998 Eh
Total energy after final integration           :   -567.277615238 Eh
             **** ENERGY FILE WAS UPDATED (4nitroaniline_water_2.en.tmp) ****

----------------
TOTAL SCF ENERGY
----------------

Total Energy       :       -567.27761523846698 Eh          -15436.40868 eV

Components:
Nuclear Repulsion  :        620.76065477305713 Eh           16891.75618 eV
Electronic Energy  :      -1188.03823401382397 Eh          -32328.16388 eV
One Electron Energy:      -2003.19054550232545 Eh          -54509.58596 eV
Two Electron Energy:        815.15231148850148 Eh           22181.42208 eV

Virial components:
Potential Energy   :      -1132.12404676926440 Eh          -30806.66149 eV
Kinetic Energy     :        564.84643153079742 Eh           15370.25281 eV
Virial Ratio       :          2.00430414989271

DFT components:
N(Alpha)           :       41.000003974204 electrons
N(Beta)            :       41.000003974204 electrons
N(Total)           :       82.000007948409 electrons
E(X)               :      -57.276903818143 Eh       
E(C)               :       -3.368634724167 Eh       
E(XC)              :      -60.645538542310 Eh       

---------------
SCF CONVERGENCE
---------------

  Last Energy change         ...   -5.2455e-10  Tolerance :   1.0000e-08
  Last MAX-Density change    ...    3.2695e-05  Tolerance :   1.0000e-07
  Last RMS-Density change    ...    1.5136e-06  Tolerance :   5.0000e-09
  Last DIIS Error            ...    3.1156e-03  Tolerance :   5.0000e-07
  Last Orbital Gradient      ...    1.4053e-05  Tolerance :   1.0000e-05
  Last Orbital Rotation      ...    1.8052e-05  Tolerance :   1.0000e-05


----------------
ORBITAL ENERGIES
----------------

  NO   OCC          E(Eh)            E(eV) 
   0   2.0000     -19.143447      -520.9197 
   1   2.0000     -19.114679      -520.1369 
   2   2.0000     -19.114528      -520.1328 
   3   2.0000     -14.514257      -394.9530 
   4   2.0000     -14.484160      -394.1340 
   5   2.0000     -10.252052      -278.9725 
   6   2.0000     -10.208577      -277.7895 
   7   2.0000     -10.208378      -277.7841 
   8   2.0000     -10.205849      -277.7153 
   9   2.0000     -10.204245      -277.6716 
  10   2.0000     -10.203288      -277.6456 
  11   2.0000      -1.278596       -34.7924 
  12   2.0000      -1.176503       -32.0143 
  13   2.0000      -1.001771       -27.2596 
  14   2.0000      -0.929068       -25.2812 
  15   2.0000      -0.884584       -24.0708 
  16   2.0000      -0.828155       -22.5352 
  17   2.0000      -0.765183       -20.8217 
  18   2.0000      -0.743918       -20.2430 
  19   2.0000      -0.702889       -19.1266 
  20   2.0000      -0.628054       -17.0902 
  21   2.0000      -0.609881       -16.5957 
  22   2.0000      -0.569296       -15.4913 
  23   2.0000      -0.543045       -14.7770 
  24   2.0000      -0.519218       -14.1286 
  25   2.0000      -0.507295       -13.8042 
  26   2.0000      -0.498473       -13.5641 
  27   2.0000      -0.481631       -13.1058 
  28   2.0000      -0.456966       -12.4347 
  29   2.0000      -0.452000       -12.2995 
  30   2.0000      -0.440146       -11.9770 
  31   2.0000      -0.423040       -11.5115 
  32   2.0000      -0.381757       -10.3881 
  33   2.0000      -0.377451       -10.2710 
  34   2.0000      -0.362368        -9.8605 
  35   2.0000      -0.279893        -7.6163 
  36   2.0000      -0.277517        -7.5516 
  37   2.0000      -0.270567        -7.3625 
  38   2.0000      -0.267449        -7.2777 
  39   2.0000      -0.252087        -6.8596 
  40   2.0000      -0.142275        -3.8715 
  41   0.0000      -0.054198        -1.4748 
  42   0.0000      -0.038674        -1.0524 
  43   0.0000      -0.024796        -0.6747 
  44   0.0000       0.015869         0.4318 
  45   0.0000       0.023673         0.6442 
  46   0.0000       0.056838         1.5466 
  47   0.0000       0.096959         2.6384 
  48   0.0000       0.098586         2.6827 
  49   0.0000       0.131734         3.5847 
  50   0.0000       0.141304         3.8451 
  51   0.0000       0.149822         4.0769 
*Only the first 10 virtual orbitals were printed.

                    ********************************
                    * MULLIKEN POPULATION ANALYSIS *
                    ********************************

-----------------------
MULLIKEN ATOMIC CHARGES
-----------------------
   0 O :   -0.286472
   1 O :   -0.287053
   2 N :    0.229962
   3 N :    0.305830
   4 C :    0.142838
   5 C :   -0.042382
   6 C :   -0.014104
   7 C :   -0.009010
   8 C :   -0.003625
   9 C :   -0.063892
  10 H :    0.000144
  11 H :   -0.000045
  12 H :   -0.039623
  13 H :   -0.040282
  14 H :    0.144088
  15 H :    0.094956
  16 O :   -0.119905
  17 H :    0.133570
  18 H :   -0.144994
Sum of atomic charges:    0.0000000

--------------------------------
MULLIKEN REDUCED ORBITAL CHARGES
--------------------------------
  0 O s       :     3.853631  s :     3.853631
      pz      :     1.467869  p :     4.411121
      px      :     1.679539
      py      :     1.263713
      dz2     :     0.002665  d :     0.021720
      dxz     :     0.001581
      dyz     :     0.004909
      dx2y2   :     0.005611
      dxy     :     0.006955

  1 O s       :     3.853504  s :     3.853504
      pz      :     1.468476  p :     4.411833
      px      :     1.679621
      py      :     1.263736
      dz2     :     0.002664  d :     0.021717
      dxz     :     0.001582
      dyz     :     0.004907
      dx2y2   :     0.005609
      dxy     :     0.006954

  2 N s       :     3.288024  s :     3.288024
      pz      :     1.201569  p :     3.366511
      px      :     1.130227
      py      :     1.034716
      dz2     :     0.004729  d :     0.115503
      dxz     :     0.008736
      dyz     :     0.026670
      dx2y2   :     0.042293
      dxy     :     0.033075

  3 N s       :     3.160749  s :     3.160749
      pz      :     1.445541  p :     3.476163
      px      :     1.100595
      py      :     0.930027
      dz2     :     0.027103  d :     0.057257
      dxz     :     0.010353
      dyz     :     0.006048
      dx2y2   :     0.002778
      dxy     :     0.010976

  4 C s       :     2.996095  s :     2.996095
      pz      :     1.152836  p :     2.813352
      px      :     0.819832
      py      :     0.840685
      dz2     :     0.004130  d :     0.047715
      dxz     :     0.005794
      dyz     :     0.006045
      dx2y2   :     0.019537
      dxy     :     0.012210

  5 C s       :     2.960434  s :     2.960434
      pz      :     1.117725  p :     3.019562
      px      :     0.813795
      py      :     1.088042
      dz2     :     0.005615  d :     0.062386
      dxz     :     0.015371
      dyz     :     0.007851
      dx2y2   :     0.021098
      dxy     :     0.012451

  6 C s       :     3.278709  s :     3.278709
      pz      :     0.929798  p :     2.699080
      px      :     0.867541
      py      :     0.901741
      dz2     :     0.002658  d :     0.036314
      dxz     :     0.007769
      dyz     :     0.004241
      dx2y2   :     0.009656
      dxy     :     0.011990

  7 C s       :     3.277823  s :     3.277823
      pz      :     0.927222  p :     2.694908
      px      :     0.867071
      py      :     0.900615
      dz2     :     0.002661  d :     0.036279
      dxz     :     0.007784
      dyz     :     0.004249
      dx2y2   :     0.009712
      dxy     :     0.011873

  8 C s       :     3.211366  s :     3.211366
      pz      :     1.098027  p :     2.758524
      px      :     0.866280
      py      :     0.794217
      dz2     :     0.002729  d :     0.033735
      dxz     :     0.005862
      dyz     :     0.003389
      dx2y2   :     0.008566
      dxy     :     0.013189

  9 C s       :     3.216324  s :     3.216324
      pz      :     1.121322  p :     2.813326
      px      :     0.894474
      py      :     0.797529
      dz2     :     0.002714  d :     0.034243
      dxz     :     0.006136
      dyz     :     0.003504
      dx2y2   :     0.008473
      dxy     :     0.013416

 10 H s       :     0.976147  s :     0.976147
      pz      :     0.004170  p :     0.023709
      px      :     0.007687
      py      :     0.011852

 11 H s       :     0.976269  s :     0.976269
      pz      :     0.004224  p :     0.023775
      px      :     0.007724
      py      :     0.011828

 12 H s       :     1.016058  s :     1.016058
      pz      :     0.005730  p :     0.023565
      px      :     0.005630
      py      :     0.012205

 13 H s       :     1.016848  s :     1.016848
      pz      :     0.005696  p :     0.023434
      px      :     0.005467
      py      :     0.012271

 14 H s       :     0.809037  s :     0.809037
      pz      :     0.011302  p :     0.046876
      px      :     0.011125
      py      :     0.024448

 15 H s       :     0.850972  s :     0.850972
      pz      :     0.013330  p :     0.054072
      px      :     0.013380
      py      :     0.027362

 16 O s       :     3.633929  s :     3.633929
      pz      :     1.389431  p :     4.467997
      px      :     1.319710
      py      :     1.758855
      dz2     :     0.007378  d :     0.017979
      dxz     :     0.003162
      dyz     :     0.003931
      dx2y2   :     0.002410
      dxy     :     0.001098

 17 H s       :     0.781602  s :     0.781602
      pz      :     0.019889  p :     0.084827
      px      :     0.045189
      py      :     0.019749

 18 H s       :     0.986199  s :     0.986199
      pz      :     0.078207  p :     0.158796
      px      :     0.037762
      py      :     0.042827



                     *******************************
                     * LOEWDIN POPULATION ANALYSIS *
                     *******************************

----------------------
LOEWDIN ATOMIC CHARGES
----------------------
   0 O :   -0.251445
   1 O :   -0.252009
   2 N :    0.264031
   3 N :    0.340674
   4 C :   -0.088006
   5 C :   -0.072139
   6 C :    0.009527
   7 C :    0.008675
   8 C :   -0.077581
   9 C :   -0.093635
  10 H :    0.041406
  11 H :    0.041322
  12 H :    0.023735
  13 H :    0.021224
  14 H :    0.110920
  15 H :    0.155119
  16 O :    0.040721
  17 H :    0.044237
  18 H :   -0.266778

-------------------------------
LOEWDIN REDUCED ORBITAL CHARGES
-------------------------------
  0 O s       :     3.619281  s :     3.619281
      pz      :     1.476355  p :     4.590252
      px      :     1.715485
      py      :     1.398412
      dz2     :     0.006397  d :     0.041911
      dxz     :     0.002122
      dyz     :     0.007080
      dx2y2   :     0.010534
      dxy     :     0.015779

  1 O s       :     3.619217  s :     3.619217
      pz      :     1.476931  p :     4.590882
      px      :     1.715541
      py      :     1.398410
      dz2     :     0.006396  d :     0.041910
      dxz     :     0.002124
      dyz     :     0.007078
      dx2y2   :     0.010534
      dxy     :     0.015778

  2 N s       :     3.046924  s :     3.046924
      pz      :     1.149919  p :     3.445918
      px      :     1.173445
      py      :     1.122553
      dz2     :     0.011770  d :     0.243127
      dxz     :     0.015098
      dyz     :     0.047163
      dx2y2   :     0.094869
      dxy     :     0.074228

  3 N s       :     2.929033  s :     2.929033
      pz      :     1.353282  p :     3.590518
      px      :     1.151292
      py      :     1.085945
      dz2     :     0.064029  d :     0.139775
      dxz     :     0.023798
      dyz     :     0.013572
      dx2y2   :     0.010770
      dxy     :     0.027607

  4 C s       :     2.853790  s :     2.853790
      pz      :     1.128675  p :     3.111978
      px      :     0.901935
      py      :     1.081368
      dz2     :     0.010030  d :     0.122238
      dxz     :     0.011557
      dyz     :     0.012433
      dx2y2   :     0.052265
      dxy     :     0.035953

  5 C s       :     2.831439  s :     2.831439
      pz      :     1.073552  p :     3.086845
      px      :     0.902440
      py      :     1.110853
      dz2     :     0.013981  d :     0.153855
      dxz     :     0.033072
      dyz     :     0.015626
      dx2y2   :     0.056383
      dxy     :     0.034792

  6 C s       :     2.861296  s :     2.861296
      pz      :     0.923675  p :     3.035372
      px      :     1.056898
      py      :     1.054799
      dz2     :     0.006349  d :     0.093805
      dxz     :     0.016613
      dyz     :     0.008528
      dx2y2   :     0.028870
      dxy     :     0.033444

  7 C s       :     2.860960  s :     2.860960
      pz      :     0.925192  p :     3.036327
      px      :     1.055790
      py      :     1.055345
      dz2     :     0.006350  d :     0.094037
      dxz     :     0.016913
      dyz     :     0.008535
      dx2y2   :     0.029014
      dxy     :     0.033225

  8 C s       :     2.851799  s :     2.851799
      pz      :     1.079160  p :     3.135268
      px      :     1.049817
      py      :     1.006292
      dz2     :     0.006533  d :     0.090513
      dxz     :     0.012358
      dyz     :     0.007245
      dx2y2   :     0.026616
      dxy     :     0.037760

  9 C s       :     2.852077  s :     2.852077
      pz      :     1.090515  p :     3.150132
      px      :     1.054202
      py      :     1.005415
      dz2     :     0.006498  d :     0.091426
      dxz     :     0.012955
      dyz     :     0.007440
      dx2y2   :     0.026414
      dxy     :     0.038118

 10 H s       :     0.887041  s :     0.887041
      pz      :     0.012775  p :     0.071552
      px      :     0.023190
      py      :     0.035588

 11 H s       :     0.887128  s :     0.887128
      pz      :     0.012813  p :     0.071550
      px      :     0.023203
      py      :     0.035534

 12 H s       :     0.907126  s :     0.907126
      pz      :     0.017679  p :     0.069139
      px      :     0.016781
      py      :     0.034679

 13 H s       :     0.908974  s :     0.908974
      pz      :     0.018137  p :     0.069802
      px      :     0.016735
      py      :     0.034931

 14 H s       :     0.766393  s :     0.766393
      pz      :     0.034434  p :     0.122687
      px      :     0.029166
      py      :     0.059087

 15 H s       :     0.664738  s :     0.664738
      pz      :     0.082301  p :     0.180143
      px      :     0.033400
      py      :     0.064441

 16 O s       :     3.410809  s :     3.410809
      pz      :     1.411968  p :     4.511319
      px      :     1.378625
      py      :     1.720726
      dz2     :     0.018198  d :     0.037150
      dxz     :     0.005070
      dyz     :     0.006488
      dx2y2   :     0.005499
      dxy     :     0.001896

 17 H s       :     0.718013  s :     0.718013
      pz      :     0.050865  p :     0.237749
      px      :     0.135181
      py      :     0.051704

 18 H s       :     0.680805  s :     0.680805
      pz      :     0.390919  p :     0.585973
      px      :     0.073902
      py      :     0.121152



                      *****************************
                      * MAYER POPULATION ANALYSIS *
                      *****************************

  NA   - Mulliken gross atomic population
  ZA   - Total nuclear charge
  QA   - Mulliken gross atomic charge
  VA   - Mayer's total valence
  BVA  - Mayer's bonded valence
  FA   - Mayer's free valence

  ATOM       NA         ZA         QA         VA         BVA        FA
  0 O      8.2865     8.0000    -0.2865     1.9261     1.9261    -0.0000
  1 O      8.2871     8.0000    -0.2871     1.9254     1.9254     0.0000
  2 N      6.7700     7.0000     0.2300     3.9959     3.9959    -0.0000
  3 N      6.6942     7.0000     0.3058     3.3462     3.3462    -0.0000
  4 C      5.8572     6.0000     0.1428     3.7300     3.7300     0.0000
  5 C      6.0424     6.0000    -0.0424     3.8795     3.8795     0.0000
  6 C      6.0141     6.0000    -0.0141     3.8521     3.8521    -0.0000
  7 C      6.0090     6.0000    -0.0090     3.8656     3.8656     0.0000
  8 C      6.0036     6.0000    -0.0036     3.7619     3.7619     0.0000
  9 C      6.0639     6.0000    -0.0639     3.7780     3.7780     0.0000
 10 H      0.9999     1.0000     0.0001     1.0221     1.0221     0.0000
 11 H      1.0000     1.0000    -0.0000     1.0225     1.0225    -0.0000
 12 H      1.0396     1.0000    -0.0396     0.9886     0.9886     0.0000
 13 H      1.0403     1.0000    -0.0403     0.9887     0.9887    -0.0000
 14 H      0.8559     1.0000     0.1441     1.0157     1.0157     0.0000
 15 H      0.9050     1.0000     0.0950     1.0081     1.0081     0.0000
 16 O      8.1199     8.0000    -0.1199     2.0267     2.0267    -0.0000
 17 H      0.8664     1.0000     0.1336     1.1026     1.1026     0.0000
 18 H      1.1450     1.0000    -0.1450     1.4953     1.4953    -0.0000

  Mayer bond orders larger than 0.100000
B(  0-O ,  1-O ) :   0.2328 B(  0-O ,  2-N ) :   1.4994 B(  1-O ,  2-N ) :   1.4991 
B(  2-N ,  4-C ) :   0.9307 B(  3-N ,  5-C ) :   1.3346 B(  3-N , 14-H ) :   0.8994 
B(  3-N , 15-H ) :   0.6583 B(  3-N , 18-H ) :   0.2356 B(  4-C ,  6-C ) :   1.2807 
B(  4-C ,  7-C ) :   1.2946 B(  5-C ,  8-C ) :   1.1924 B(  5-C ,  9-C ) :   1.1740 
B(  6-C ,  8-C ) :   1.4518 B(  6-C , 10-H ) :   0.9771 B(  7-C ,  9-C ) :   1.4439 
B(  7-C , 11-H ) :   0.9775 B(  8-C , 12-H ) :   0.9857 B(  9-C , 13-H ) :   0.9768 
B( 15-H , 18-H ) :   0.2528 B( 16-O , 17-H ) :   0.9651 B( 16-O , 18-H ) :   0.8807 


-------
TIMINGS
-------

Total SCF time: 0 days 0 hours 0 min 6 sec 

Total time                  ....       6.978 sec
Sum of individual times     ....       6.833 sec  ( 97.9%)

SCF preparation             ....       0.606 sec  (  8.7%)
Fock matrix formation       ....       5.599 sec  ( 80.2%)
  Startup                   ....       0.070 sec  (  1.2% of F)
  Split-RI-J                ....       0.506 sec  (  9.0% of F)
  Chain of spheres X        ....       3.376 sec  ( 60.3% of F)
  XC integration            ....       1.457 sec  ( 26.0% of F)
    XC Preparation          ....       0.000 sec  (  0.0% of XC)
    Basis function eval.    ....       0.286 sec  ( 19.6% of XC)
    Density eval.           ....       0.131 sec  (  9.0% of XC)
    XC-Functional eval.     ....       0.068 sec  (  4.7% of XC)
    XC-Potential eval.      ....       0.188 sec  ( 12.9% of XC)
Diagonalization             ....       0.000 sec  (  0.0%)
Density matrix formation    ....       0.180 sec  (  2.6%)
Total Energy calculation    ....       0.066 sec  (  0.9%)
Population analysis         ....       0.022 sec  (  0.3%)
Orbital Transformation      ....       0.034 sec  (  0.5%)
Orbital Orthonormalization  ....       0.000 sec  (  0.0%)
DIIS solution               ....       0.178 sec  (  2.6%)
SOSCF solution              ....       0.148 sec  (  2.1%)
Finished LeanSCF after   7.0 sec

Maximum memory used throughout the entire LEANSCF-calculation: 20.5 MB


-------------------------------------------------------------------------------
                          DFT DISPERSION CORRECTION                            
                                                                               
                              DFTD3 V3.1  Rev 1                                
                          USING Becke-Johnson damping                          
-------------------------------------------------------------------------------
The B3LYP functional is recognized
Active option DFTDOPT                   ...         4   

molecular C6(AA) [au] = 3830.282797 


            DFT-D V3
 parameters
 s6 scaling factor         :     1.0000 
 a1 scaling factor         :     0.3981 
 s8 scaling factor         :     1.9889 
 a2 scaling factor         :     4.4211 
 ad hoc parameters k1-k3   :    16.0000     1.3333    -4.0000 

 Edisp/kcal,au: -22.029588519714  -0.035106380191 
 E6   /kcal   : -10.464758338 
 E8   /kcal   : -11.564830182 
 % E8         :  52.496805245 

-------------------------   ----------------
Dispersion correction           -0.035106380
-------------------------   ----------------


-------------------------   --------------------
FINAL SINGLE POINT ENERGY      -567.312721618658
-------------------------   --------------------

--------------------------------------------------------------------------
By default, for Open MPI 4.0 and later, infiniband ports on a device
are not used by default.  The intent is to use UCX for these devices.
You can override this policy by setting the btl_openib_allow_ib MCA parameter
to true.

  Local host:              psid01
  Local adapter:           mlx5_0
  Local port:              1

--------------------------------------------------------------------------
--------------------------------------------------------------------------
WARNING: There was an error initializing an OpenFabrics device.

  Local host:   psid01
  Local device: mlx5_0
--------------------------------------------------------------------------


           ************************************************************
           *        Program running with 20 parallel MPI-processes    *
           *              working on a common directory               *
           ************************************************************
------------------------------------------------------------------------------
                         ORCA SCF GRADIENT CALCULATION
------------------------------------------------------------------------------

Nuc. rep. gradient        (SHARK) ... done (  0.0 sec)
HCore & Overlap gradient  (SHARK) ... done (  0.0 sec)
Split-RIJ-J gradient      (SHARK) ... done (  0.2 sec)
COSX-gradient                     ... done (  1.7 sec)
XC gradient                       ... done (  0.3 sec)
Dispersion correction             ... done (  0.0 sec)

-------------------
DISPERSION GRADIENT
-------------------

   1   O   :    0.000480526    0.000176280   -0.000001120
   2   O   :    0.000481092   -0.000175978   -0.000001290
   3   N   :    0.000599704    0.000000571   -0.000003303
   4   N   :   -0.000604094    0.000001638   -0.000010450
   5   C   :    0.000531191    0.000007049   -0.000038169
   6   C   :   -0.000427533    0.000008242   -0.000034967
   7   C   :    0.000232157    0.000626525   -0.000062209
   8   C   :    0.000263434   -0.000612181   -0.000073000
   9   C   :   -0.000011946    0.000663350   -0.000115193
  10   C   :   -0.000024272   -0.000604057   -0.000102835
  11   H   :    0.000100194    0.000350254   -0.000005003
  12   H   :    0.000107007   -0.000351888   -0.000007476
  13   H   :   -0.000049573    0.000435089   -0.000053913
  14   H   :   -0.000036598   -0.000423806   -0.000057906
  15   H   :   -0.000297044    0.000093481   -0.000021750
  16   H   :   -0.000290470   -0.000081586   -0.000014620
  17   O   :   -0.000468898   -0.000017904    0.000295986
  18   H   :   -0.000280337   -0.000050660    0.000232941
  19   H   :   -0.000304539   -0.000044419    0.000074277

Difference to translation invariance:
           :   -0.0000000000   -0.0000000000    0.0000000000

Difference to rotation invariance:
           :    0.0000000000    0.0000000000   -0.0000000000

Norm of the Dispersion gradient    ...    0.0021966583
RMS gradient                       ...    0.0002909545
MAX gradient                       ...    0.0006633502

------------------
CARTESIAN GRADIENT
------------------

   1   O   :   -0.004699466   -0.008221638    0.000377181
   2   O   :   -0.004842862    0.008330720    0.000276585
   3   N   :    0.020246399    0.000097877   -0.001505238
   4   N   :   -0.163443574   -0.150245474    0.459658478
   5   C   :   -0.022037127    0.001172090   -0.000300924
   6   C   :   -0.003000174   -0.001283121    0.062423616
   7   C   :    0.014970305   -0.004491910    0.002147356
   8   C   :    0.012175617    0.004241616    0.001271070
   9   C   :   -0.011617758   -0.019997126    0.001911282
  10   C   :   -0.012542529    0.019354920   -0.001374818
  11   H   :    0.000434857   -0.000027382   -0.000349075
  12   H   :    0.000396697   -0.000022296    0.000205312
  13   H   :   -0.000394044   -0.000713751   -0.001257951
  14   H   :   -0.000581295    0.001750417   -0.000811341
  15   H   :    0.002830245   -0.017354964    0.019971304
  16   H   :    0.012347726    0.098033790    0.176066892
  17   O   :    0.060347319   -0.013370030   -0.443062328
  18   H   :   -0.000025638    0.014441005   -0.055916022
  19   H   :    0.099435299    0.068305258   -0.219731381

Difference to translation invariance:
           :    0.0000000001    0.0000000000    0.0000000001

Difference to rotation invariance:
           :    0.0000301335   -0.0000768081    0.0000450316

Norm of the Cartesian gradient     ...    0.7581716250
RMS gradient                       ...    0.1004222849
MAX gradient                       ...    0.4596584785

-------
TIMINGS
-------

Total SCF gradient time     ....        2.288 sec

Densities                   ....       0.001 sec  (  0.0%)
One electron gradient       ....       0.018 sec  (  0.8%)
RI-J Coulomb gradient       ....       0.156 sec  (  6.8%)
COSX gradient               ....       1.738 sec  ( 76.0%)
XC gradient                 ....       0.331 sec  ( 14.4%)

Maximum memory used throughout the entire SCFGRAD-calculation: 30.7 MB
[psid01:184307] 19 more processes have sent help message help-mpi-btl-openib.txt / ib port not selected
[psid01:184307] Set MCA parameter "orte_base_help_aggregate" to 0 to see all help / error messages
[psid01:184307] 19 more processes have sent help message help-mpi-btl-openib.txt / error in device init
------------------------------------------------------------------------------
                         ORCA GEOMETRY RELAXATION STEP
------------------------------------------------------------------------------

Reading the OPT-File                    .... done
Getting information on internals        .... done
Copying old internal coords+grads       .... done
Making the new internal coordinates     .... (2022 redundants) done
Validating the new internal coordinates .... (2022 redundants) done
Calculating the B-matrix                .... done
Calculating the G,G- and P matrices     .... done
Transforming gradient to internals      .... done
Projecting the internal gradient        .... done
Number of atoms                         ....  19
Number of internal coordinates          .... 112
Current Energy                          ....  -567.312721619 Eh
Current gradient norm                   ....     0.758171625 Eh/bohr
Maximum allowed component of the step   ....  0.300
Current trust radius                    ....  0.300
Evaluating the initial hessian          ....  (Almloef) done
Projecting the Hessian                  .... done
Forming the augmented Hessian           .... done
[...]
      pz      :     1.075735  p :     3.067268
      px      :     0.900477
      py      :     1.091057
      dz2     :     0.011735  d :     0.121993
      dxz     :     0.012576
      dyz     :     0.015102
      dx2y2   :     0.049879
      dxy     :     0.032701

  5 C s       :     2.842259  s :     2.842259
      pz      :     0.943145  p :     2.983022
      px      :     0.955988
      py      :     1.083889
      dz2     :     0.012184  d :     0.143954
      dxz     :     0.031928
      dyz     :     0.014395
      dx2y2   :     0.047857
      dxy     :     0.037589

  6 C s       :     2.863028  s :     2.863028
      pz      :     0.937606  p :     3.037182
      px      :     1.061666
      py      :     1.037910
      dz2     :     0.006518  d :     0.091238
      dxz     :     0.016632
      dyz     :     0.008438
      dx2y2   :     0.026507
      dxy     :     0.033143

  7 C s       :     2.862788  s :     2.862788
      pz      :     0.936554  p :     3.036861
      px      :     1.060693
      py      :     1.039614
      dz2     :     0.008037  d :     0.091112
      dxz     :     0.014653
      dyz     :     0.009612
      dx2y2   :     0.026703
      dxy     :     0.032108

  8 C s       :     2.860464  s :     2.860464
      pz      :     1.020443  p :     3.106132
      px      :     1.053795
      py      :     1.031894
      dz2     :     0.006941  d :     0.086622
      dxz     :     0.012655
      dyz     :     0.008259
      dx2y2   :     0.026557
      dxy     :     0.032211

  9 C s       :     2.858094  s :     2.858094
      pz      :     1.030406  p :     3.109515
      px      :     1.051480
      py      :     1.027630
      dz2     :     0.006341  d :     0.087154
      dxz     :     0.013040
      dyz     :     0.007421
      dx2y2   :     0.027070
      dxy     :     0.033282

 10 H s       :     0.885222  s :     0.885222
      pz      :     0.016262  p :     0.071567
      px      :     0.019893
      py      :     0.035411

 11 H s       :     0.885882  s :     0.885882
      pz      :     0.013792  p :     0.071599
      px      :     0.026120
      py      :     0.031687

 12 H s       :     0.899671  s :     0.899671
      pz      :     0.017044  p :     0.070060
      px      :     0.021556
      py      :     0.031460

 13 H s       :     0.902869  s :     0.902869
      pz      :     0.018341  p :     0.068006
      px      :     0.015139
      py      :     0.034525

 14 H s       :     0.793608  s :     0.793608
      pz      :     0.040666  p :     0.122046
      px      :     0.030173
      py      :     0.051208

 15 H s       :     0.800471  s :     0.800471
      pz      :     0.045338  p :     0.120258
      px      :     0.025091
      py      :     0.049829

 16 O s       :     3.430306  s :     3.430306
      pz      :     1.439134  p :     4.703501
      px      :     1.518204
      py      :     1.746164
      dz2     :     0.004536  d :     0.019242
      dxz     :     0.002112
      dyz     :     0.005812
      dx2y2   :     0.003881
      dxy     :     0.002901

 17 H s       :     0.751015  s :     0.751015
      pz      :     0.042608  p :     0.177028
      px      :     0.081260
      py      :     0.053160

 18 H s       :     0.766615  s :     0.766615
      pz      :     0.092207  p :     0.194019
      px      :     0.037005
      py      :     0.064807



                      *****************************
                      * MAYER POPULATION ANALYSIS *
                      *****************************

  NA   - Mulliken gross atomic population
  ZA   - Total nuclear charge
  QA   - Mulliken gross atomic charge
  VA   - Mayer's total valence
  BVA  - Mayer's bonded valence
  FA   - Mayer's free valence

  ATOM       NA         ZA         QA         VA         BVA        FA
  0 O      8.2480     8.0000    -0.2480     1.9566     1.9566     0.0000
  1 O      8.2494     8.0000    -0.2494     1.9557     1.9557    -0.0000
  2 N      6.7654     7.0000     0.2346     3.9832     3.9832     0.0000
  3 N      7.0961     7.0000    -0.0961     3.2137     3.2137     0.0000
  4 C      5.8266     6.0000     0.1734     3.7556     3.7556     0.0000
  5 C      5.9277     6.0000     0.0723     3.9735     3.9735     0.0000
  6 C      6.0230     6.0000    -0.0230     3.8419     3.8419     0.0000
  7 C      6.0207     6.0000    -0.0207     3.8521     3.8521     0.0000
  8 C      6.0401     6.0000    -0.0401     3.8056     3.8056     0.0000
  9 C      6.0140     6.0000    -0.0140     3.7668     3.7668    -0.0000
 10 H      0.9900     1.0000     0.0100     1.0183     1.0183    -0.0000
 11 H      0.9919     1.0000     0.0081     1.0186     1.0186     0.0000
 12 H      1.0170     1.0000    -0.0170     1.0242     1.0242     0.0000
 13 H      1.0261     1.0000    -0.0261     0.9894     0.9894     0.0000
 14 H      0.8604     1.0000     0.1396     0.9883     0.9883     0.0000
 15 H      0.8802     1.0000     0.1198     0.9991     0.9991     0.0000
 16 O      8.3066     8.0000    -0.3066     2.0582     2.0582     0.0000
 17 H      0.8487     1.0000     0.1513     1.0159     1.0159    -0.0000
 18 H      0.8682     1.0000     0.1318     1.0826     1.0826     0.0000

  Mayer bond orders larger than 0.100000
B(  0-O ,  1-O ) :   0.2726 B(  0-O ,  2-N ) :   1.5404 B(  1-O ,  2-N ) :   1.5394 
B(  2-N ,  4-C ) :   0.8753 B(  3-N ,  5-C ) :   1.1766 B(  3-N , 14-H ) :   0.9412 
B(  3-N , 15-H ) :   0.9450 B(  4-C ,  6-C ) :   1.3506 B(  4-C ,  7-C ) :   1.3624 
B(  5-C ,  8-C ) :   1.3112 B(  5-C ,  9-C ) :   1.3178 B(  6-C ,  8-C ) :   1.3715 
B(  6-C , 10-H ) :   0.9841 B(  7-C ,  9-C ) :   1.3675 B(  7-C , 11-H ) :   0.9814 
B(  8-C , 12-H ) :   0.9861 B(  9-C , 13-H ) :   0.9869 B( 16-O , 17-H ) :   1.0036 
B( 16-O , 18-H ) :   0.9755 

-------
TIMINGS
-------

Total SCF time: 0 days 0 hours 0 min 3 sec 

Total time                  ....       3.782 sec
Sum of individual times     ....       3.655 sec  ( 96.6%)

SCF preparation             ....       0.681 sec  ( 18.0%)
Fock matrix formation       ....       2.526 sec  ( 66.8%)
  Startup                   ....       0.046 sec  (  1.8% of F)
  Split-RI-J                ....       0.224 sec  (  8.9% of F)
  Chain of spheres X        ....       1.659 sec  ( 65.7% of F)
  XC integration            ....       0.518 sec  ( 20.5% of F)
    XC Preparation          ....       0.000 sec  (  0.0% of XC)
    Basis function eval.    ....       0.110 sec  ( 21.2% of XC)
    Density eval.           ....       0.049 sec  (  9.5% of XC)
    XC-Functional eval.     ....       0.027 sec  (  5.1% of XC)
    XC-Potential eval.      ....       0.066 sec  ( 12.7% of XC)
Diagonalization             ....       0.000 sec  (  0.0%)
Density matrix formation    ....       0.114 sec  (  3.0%)
Total Energy calculation    ....       0.036 sec  (  1.0%)
Population analysis         ....       0.169 sec  (  4.5%)
Orbital Transformation      ....       0.014 sec  (  0.4%)
Orbital Orthonormalization  ....       0.000 sec  (  0.0%)
DIIS solution               ....       0.023 sec  (  0.6%)
SOSCF solution              ....       0.092 sec  (  2.4%)
Finished LeanSCF after   4.0 sec

Maximum memory used throughout the entire LEANSCF-calculation: 24.9 MB
[psid01:203965] 19 more processes have sent help message help-mpi-btl-openib.txt / ib port not selected
[psid01:203965] Set MCA parameter "orte_base_help_aggregate" to 0 to see all help / error messages
[psid01:203965] 19 more processes have sent help message help-mpi-btl-openib.txt / error in device init


-------------------------------------------------------------------------------
                          DFT DISPERSION CORRECTION                            
                                                                               
                              DFTD3 V3.1  Rev 1                                
                          USING Becke-Johnson damping                          
-------------------------------------------------------------------------------
The B3LYP functional is recognized
Active option DFTDOPT                   ...         4   

molecular C6(AA) [au] = 3865.772896 


            DFT-D V3
 parameters
 s6 scaling factor         :     1.0000 
 a1 scaling factor         :     0.3981 
 s8 scaling factor         :     1.9889 
 a2 scaling factor         :     4.4211 
 ad hoc parameters k1-k3   :    16.0000     1.3333    -4.0000 

 Edisp/kcal,au: -20.717235455567  -0.033015012684 
 E6   /kcal   :  -9.811644855 
 E8   /kcal   : -10.905590600 
 % E8         :  52.640182730 

-------------------------   ----------------
Dispersion correction           -0.033015013
-------------------------   ----------------


-------------------------   --------------------
FINAL SINGLE POINT ENERGY      -567.849719715748
-------------------------   --------------------

                                *** OPTIMIZATION RUN DONE ***

--------------------------------------------------------------------------
By default, for Open MPI 4.0 and later, infiniband ports on a device
are not used by default.  The intent is to use UCX for these devices.
You can override this policy by setting the btl_openib_allow_ib MCA parameter
to true.

  Local host:              psid01
  Local adapter:           mlx5_0
  Local port:              1

--------------------------------------------------------------------------
--------------------------------------------------------------------------
WARNING: There was an error initializing an OpenFabrics device.

  Local host:   psid01
  Local device: mlx5_0
--------------------------------------------------------------------------


           ************************************************************
           *        Program running with 20 parallel MPI-processes    *
           *              working on a common directory               *
           ************************************************************

------------------------------------------------------------------------------
                              ORCA PROPERTY CALCULATIONS
------------------------------------------------------------------------------

GBWName                                 ... 4nitroaniline_water_2.gbw
Number of atoms                         ...     19
Number of basis functions               ...    194
Max core memory                         ...   2000 MB

Electric properties:
Dipole moment                           ... YES
Quadrupole moment                       ...  NO
Static polarizability (Dipole/Dipole)   ...  NO
Static polarizability (Dipole/Quad.)    ...  NO
Static polarizability (Quad./Quad.)     ...  NO
Static polarizability (Velocity)        ...  NO

Atomic electric properties:
Dipole moment                           ...  NO
Quadrupole moment                       ...  NO
Static polarizability                   ...  NO

Choice of electric origin               ... Center of mass
Position of electric origin             ...   -10.170844    12.816898     0.385359

General magnetic properties:
Magnetizability                         ...  NO

EPR properties:
g-Tensor (aka g-matrix)                 ...  NO
Zero-Field splitting spin-orbit         ...  NO
Zero-field splitting spin-spin          ...  NO
Hyperfine couplings                     ...  NO (   0 nuclei)
Quadrupole couplings                    ...  NO (   0 nuclei)
Contact density                         ...  NO (   0 nuclei)

NMR properties:
Chemical shifts                         ...  NO (   0 nuclei)
Spin-rotation constants                 ...  NO (   0 nuclei)
Spin-spin couplings                     ...  NO (   0 nuclei,    0 pairs)

Choice of magnetic origin               ... GIAO
Position of magnetic origin             ...     0.000000     0.000000     0.000000

Properties with geometric perturbations:
SCF Hessian                             ...  NO
IR spectrum                             ...  NO
VCD spectrum                            ...  NO
X-ray spectroscopy properties:
SCF XES/XAS/RIXS spectra                ...  NO


-------------
DIPOLE MOMENT
-------------

Method             : SCF
Type of density    : Electron Density
Multiplicity       :   1
Irrep              :   0
Energy             :  -567.8167047030638059 Eh
Relativity type    : 
Basis              : AO
                                X                 Y                 Z
Electronic contribution:     11.454383683      -0.178287161      -1.469523584
Nuclear contribution   :    -13.300152428      -0.446979068       0.354794338
                        -----------------------------------------
Total Dipole Moment    :     -1.845768744      -0.625266229      -1.114729246
                        -----------------------------------------
Magnitude (a.u.)       :      2.245092739
Magnitude (Debye)      :      5.706572233



--------------------
Rotational spectrum 
--------------------
 
Rotational constants in cm-1:             0.073728             0.018808             0.016331 
Rotational constants in MHz :          2210.315922           563.838520           489.598221 

Dipole components along the rotational axes: 
x,y,z [a.u.] :     1.693155    -1.364180    -0.559178 
x,y,z [Debye]:     4.303659    -3.467469    -1.421318 

 

Dipole moment calculation done in   0.1 sec 

Maximum memory used throughout the entire PROP-calculation: 14.0 MB
[psid01:204032] 19 more processes have sent help message help-mpi-btl-openib.txt / ib port not selected
[psid01:204032] Set MCA parameter "orte_base_help_aggregate" to 0 to see all help / error messages
[psid01:204032] 19 more processes have sent help message help-mpi-btl-openib.txt / error in device init
--------------------------------------------------------------------------
By default, for Open MPI 4.0 and later, infiniband ports on a device
are not used by default.  The intent is to use UCX for these devices.
You can override this policy by setting the btl_openib_allow_ib MCA parameter
to true.

  Local host:              psid01
  Local adapter:           mlx5_0
  Local port:              1

--------------------------------------------------------------------------
--------------------------------------------------------------------------
WARNING: There was an error initializing an OpenFabrics device.

  Local host:   psid01
  Local device: mlx5_0
--------------------------------------------------------------------------
[psid01:204131] 19 more processes have sent help message help-mpi-btl-openib.txt / ib port not selected
[psid01:204131] Set MCA parameter "orte_base_help_aggregate" to 0 to see all help / error messages
[psid01:204131] 19 more processes have sent help message help-mpi-btl-openib.txt / error in device init

--------------------------------
SUGGESTED CITATIONS FOR THIS RUN
--------------------------------

Below you find a list of papers that are relevant to this ORCA run
We neither can nor want to force you to cite these papers, but we appreciate if you do
You receive ORCA, which is the product of decades of hard work by many enthusiastic individuals, for free
The only thing we kindly ask in return is that you cite our papers,
We deeply appreciate it, if you show your appreciation for ORCA by not just citing the generic ORCA reference.

Please note that relegating all ORCA citations to the supporting information does *not* help us.
SI sections are not indexed - citations you put there will not count into any citation statistics
But we need these citations in order to attract the funding resources that allow us to do what we are doing

Therefore, if you are a happy ORCA user, please consider citing a few of the papers listed below in the main body of your paper

In addition to the list printed below, the program has created the file 4nitroaniline_water_2.bibtex that contains the list in bibtex format
You can import this file easily into all common literature databanks and citation aid programs


List of essential papers. We consider these as the minimum necessary citations

  1. Neese,F.
     Software update: the ORCA program system, version 5.0
     WIRES Comput. Molec. Sci., 2022 12(1)e1606
     doi.org/10.1002/wcms.1606

List of papers to cite with high priority. The work reported in these papers was absolutely
necessary for this run to complete.
Our perspective: the developers of density functionals and basis sets usually get cited in chemistry papers
Good! But without the algorithms to do something with them, the functionals or basis sets would not do anything.
Hence, in our opinion, the algorithm design and method developments papers are equally worthy of getting cited

  1. Neese,F.
     An improvement of the resolution of the identity approximation for the formation of the Coulomb matrix
     J. Comp. Chem., 2003 24(14)1740-1747
     doi.org/10.1002/jcc.10318
  2. Neese,F.; Wennmohs,F.; Hansen,A.; Becker,U.
     Efficient, approximate and parallel Hartree-Fock and hybrid DFT calculations. A 'chain-of-spheres' algorithm for the Hartree-Fock exchange
     Chem. Phys., 2009 356(1-3)98-109
     doi.org/10.1016/j.chemphys.2008.10.036
  3. Helmich-Paris,B.; de Souza,B.; Neese,F.; Izsák,R.
     An improved chain of spheres for exchange algorithm
     J. Chem. Phys., 2021 155 104109
     doi.org/doi: 10.1063/5.0058766.
  4. Neese,F.
     The SHARK Integral Generation and Digestion System
     J. Comp. Chem., 2022  1-16
     doi.org/10.1002/jcc.26942
  5. Grimme,S.; Antony,J.; Ehrlich,S.; Krieg,H.
     A consistent and accurate ab initio parametrization of density functional dispersion correction (DFT-D) for the 94 elements H-Pu
     J. Chem. Phys., 2010 132 154104
     doi.org/10.1063/1.3382344
  6. Grimme,S.; Ehrlich,S.; Goerigk,L.
     Effect of the damping function in dispersion corrected density functional theory
     J. Comput. Chem., 2011 32(7)1456-1465
     doi.org/10.1002/jcc.21759

List of suggested additional citations. These are papers that are important in the 'surrounding' of 
of this run, or papers that preceded the highly important papers. If you like your results we are grateful for a citation.

  1. Izsak,R.; Neese,F.
     An overlap fitted chain of spheres exchange method
     J. Chem. Phys., 2011 135 144105
     doi.org/10.1063/1.3646921
  2. Izsak,R.; Hansen,A.; Neese,F.
     The resolution of identity and chain of spheres approximations for the LPNO-CCSD singles Fock term
     Molec. Phys., 2012 110 2413-2417
     doi.org/10.1080/00268976.2012.687466
  3. Neese,F.
     The ORCA program system
     WIRES Comput. Molec. Sci., 2012 2(1)73-78
     doi.org/10.1002/wcms.81
  4. Izsak,R.; Neese,F.; Klopper,W.
     Robust fitting techniques in the chain of spheres approximation to the Fock exchange: The role of the complementary space
     J. Chem. Phys., 2013 139 
     doi.org/10.1063/1.4819264
  5. Neese,F.
     Software update: the ORCA program system, version 4.0
     WIRES Comput. Molec. Sci., 2018 8(1)1-6
     doi.org/10.1002/wcms.1327
  6. Neese,F.; Wennmohs,F.; Becker,U.; Riplinger,C.
     The ORCA quantum chemistry program package
     J. Chem. Phys., 2020 152 Art. No. L224108
     doi.org/10.1063/5.0004608

List of optional additional citations

  1. Neese,F.
     Approximate second-order SCF convergence for spin unrestricted wavefunctions
     Chem. Phys. Lett., 2000 325(1-3)93-98
     doi.org/10.1016/s0009-2614(00)00662-x

Timings for individual modules:

Sum of individual times          ...      481.156 sec (=   8.019 min)
Startup calculation              ...       72.283 sec (=   1.205 min)  15.0 %
SCF iterations                   ...      283.004 sec (=   4.717 min)  58.8 %
Property calculations            ...        0.836 sec (=   0.014 min)   0.2 %
SCF Gradient evaluation          ...      124.541 sec (=   2.076 min)  25.9 %
Geometry relaxation              ...        0.493 sec (=   0.008 min)   0.1 %
                             ****ORCA TERMINATED NORMALLY****
TOTAL RUN TIME: 0 days 0 hours 8 minutes 53 seconds 11 msec
