# vtk DataFile Version 1.0
Cube
ASCII

DATASET POLYDATA
POINTS 144 float
-0.428085 10.532866 13.493529
3.363992 17.667579 0.843029
4.264157 8.267430 11.807471
0.472079 1.132718 24.457971
1.039602 17.119550 2.717327
0.680888 15.891891 4.660444
4.221162 14.013741 4.005148
-1.139002 15.331642 2.132874
-0.365814 11.295218 6.499827
-0.551765 10.046878 8.470775
-1.107278 13.299330 10.942682
-1.019032 14.590910 9.002096
1.896306 11.080895 15.367827
2.255020 12.308554 17.310944
-1.285254 14.186704 16.655648
4.074910 12.868803 14.783374
3.301722 16.905227 19.150327
3.487673 18.153566 21.121275
4.043186 14.901115 23.593182
3.954940 13.609535 21.652596
2.796470 1.680747 22.583673
3.155184 2.908406 20.640556
-0.385090 4.786555 21.295852
4.975074 3.468655 23.168126
4.201886 7.505078 18.801173
4.387837 8.753418 16.830225
4.943350 5.500967 14.358318
4.855104 4.209386 16.298904
1.939766 7.719402 9.933173
1.581052 6.491742 7.990056
5.121326 4.613593 8.645352
-0.238838 5.931494 10.517626
0.534350 1.895070 6.150673
0.348399 0.646730 4.179725
-0.207114 3.899181 1.707817
-0.118868 5.190762 3.648404
1.696831 16.495380 3.000952
1.476253 15.773449 4.152653
2.449658 14.872915 4.548108
3.572325 14.667991 3.772126
3.713642 15.440683 2.659135
1.277262 13.201568 5.872109
1.199073 12.428876 7.127292
2.105808 12.660120 8.177789
3.114405 13.664055 8.050019
3.244018 14.423587 6.801162
0.225563 11.458781 7.225713
0.120257 10.716169 8.402462
0.967355 10.928612 9.469658
2.024980 11.885547 9.367948
3.003070 12.107391 10.372904
3.920404 13.122607 10.234508
3.973794 13.895299 9.075722
0.570319 10.242402 10.748624
3.297414 11.146696 11.502088
1.239076 11.705065 15.651452
1.459655 12.426996 16.803153
0.486250 13.327530 17.198608
-0.636417 13.532453 16.422626
-0.777734 12.759761 15.309635
1.658646 14.998877 18.522609
1.736835 15.771569 19.777792
0.830100 15.540325 20.828289
-0.178497 14.536389 20.700519
-0.308110 13.776857 19.451662
2.710345 16.741664 19.876213
2.815651 17.484276 21.052962
1.968553 17.271832 22.120158
0.910928 16.314897 22.018448
-0.067162 16.093054 23.023404
-0.984497 15.077838 22.885008
-1.037886 14.305146 21.726222
2.365589 17.958043 23.399124
-0.361506 17.053749 24.152588
2.139240 2.304916 22.300048
2.359819 3.026848 21.148347
1.386414 3.927382 20.752892
0.263747 4.132305 21.528874
0.122430 3.359613 22.641865
2.558810 5.598728 19.428891
2.636999 6.371420 18.173708
1.730264 6.140177 17.123211
0.721667 5.136241 17.250981
0.592054 4.376709 18.499838
3.610509 7.341516 18.075287
3.715815 8.084127 16.898538
2.868717 7.871684 15.831342
1.811092 6.914749 15.933052
0.833002 6.692906 14.928096
-0.084332 5.677690 15.066492
-0.137722 4.904997 16.225278
3.265753 8.557895 14.552376
0.538658 7.653601 13.798912
2.596996 7.095232 9.649548
2.376417 6.373300 8.497847
3.349822 5.472766 8.102392
4.472489 5.267843 8.878374
4.613806 6.040535 9.991365
2.177426 3.801420 6.778391
2.099237 3.028728 5.523208
3.005972 3.259971 4.472711
4.014569 4.263907 4.600481
4.144182 5.023439 5.849338
1.125727 2.058632 5.424787
1.020421 1.316021 4.248038
1.867519 1.528464 3.180842
2.925144 2.485399 3.282552
3.903234 2.707243 2.277596
4.820568 3.722459 2.415992
4.873958 4.495151 3.574778
1.470483 0.842253 1.901876
4.197578 1.746548 1.148412
2.807988 16.345918 2.264946
2.314957 14.154743 5.794688
0.127920 11.854527 14.915446
0.620951 14.045701 18.445188
1.028084 2.454379 23.036054
1.521115 4.645553 19.506312
3.708152 6.945770 10.385554
3.215121 4.754595 6.855812
0.587892 10.941773 11.799121
0.138327 9.067759 10.647673
3.227667 9.920916 11.206572
3.705416 11.624223 12.578392
0.527897 13.051542 4.929394
4.103695 15.263961 6.625826
2.348016 17.258672 24.449621
4.597909 0.332389 23.298173
-0.291759 18.279528 23.857072
-0.769508 16.576221 25.228892
2.408011 15.148903 17.579894
-1.167787 12.936484 19.276326
3.248180 7.858524 13.501879
3.697745 9.732537 14.653327
0.608405 8.879380 14.094428
0.130656 7.176073 12.722608
3.308175 5.748755 20.371606
-0.267623 3.536336 18.675174
1.488056 1.541624 0.851379
-0.761837 18.467907 2.002827
4.127831 0.520768 1.443928
4.605580 2.224075 0.072108
1.428061 3.651394 7.721106
5.003859 5.863812 6.024674
POINT_DATA 144
SCALARS my_scalars float
LOOKUP_TABLE default
1.39
1.39
1.39
1.39
1.09
1.09
1.09
1.09
1.09
1.09
1.09
1.09
1.09
1.09
1.09
1.09
1.09
1.09
1.09
1.09
1.09
1.09
1.09
1.09
1.09
1.09
1.09
1.09
1.09
1.09
1.09
1.09
1.09
1.09
1.09
1.09
1.7
1.7
1.7
1.7
1.7
1.7
1.7
1.7
1.7
1.7
1.7
1.7
1.7
1.7
1.7
1.7
1.7
1.7
1.7
1.7
1.7
1.7
1.7
1.7
1.7
1.7
1.7
1.7
1.7
1.7
1.7
1.7
1.7
1.7
1.7
1.7
1.7
1.7
1.7
1.7
1.7
1.7
1.7
1.7
1.7
1.7
1.7
1.7
1.7
1.7
1.7
1.7
1.7
1.7
1.7
1.7
1.7
1.7
1.7
1.7
1.7
1.7
1.7
1.7
1.7
1.7
1.7
1.7
1.7
1.7
1.7
1.7
1.7
1.7
1.7
1.7
1.55
1.55
1.55
1.55
1.55
1.55
1.55
1.55
1.52
1.52
1.52
1.52
1.52
1.52
1.52
1.52
1.52
1.52
1.52
1.52
1.52
1.52
1.52
1.52
1.52
1.52
1.52
1.52
1.52
1.52
1.52
1.52
VECTORS vectors float
0.4375 0 0
0.4375 0 0
0.4375 0 0
0.4375 0 0
0.25 0 0
0.25 0 0
0.25 0 0
0.25 0 0
0.25 0 0
0.25 0 0
0.25 0 0
0.25 0 0
0.25 0 0
0.25 0 0
0.25 0 0
0.25 0 0
0.25 0 0
0.25 0 0
0.25 0 0
0.25 0 0
0.25 0 0
0.25 0 0
0.25 0 0
0.25 0 0
0.25 0 0
0.25 0 0
0.25 0 0
0.25 0 0
0.25 0 0
0.25 0 0
0.25 0 0
0.25 0 0
0.25 0 0
0.25 0 0
0.25 0 0
0.25 0 0
0.3125 0 0
0.3125 0 0
0.3125 0 0
0.3125 0 0
0.3125 0 0
0.3125 0 0
0.3125 0 0
0.3125 0 0
0.3125 0 0
0.3125 0 0
0.3125 0 0
0.3125 0 0
0.3125 0 0
0.3125 0 0
0.3125 0 0
0.3125 0 0
0.3125 0 0
0.3125 0 0
0.3125 0 0
0.3125 0 0
0.3125 0 0
0.3125 0 0
0.3125 0 0
0.3125 0 0
0.3125 0 0
0.3125 0 0
0.3125 0 0
0.3125 0 0
0.3125 0 0
0.3125 0 0
0.3125 0 0
0.3125 0 0
0.3125 0 0
0.3125 0 0
0.3125 0 0
0.3125 0 0
0.3125 0 0
0.3125 0 0
0.3125 0 0
0.3125 0 0
0.3125 0 0
0.3125 0 0
0.3125 0 0
0.3125 0 0
0.3125 0 0
0.3125 0 0
0.3125 0 0
0.3125 0 0
0.3125 0 0
0.3125 0 0
0.3125 0 0
0.3125 0 0
0.3125 0 0
0.3125 0 0
0.3125 0 0
0.3125 0 0
0.3125 0 0
0.3125 0 0
0.3125 0 0
0.3125 0 0
0.3125 0 0
0.3125 0 0
0.3125 0 0
0.3125 0 0
0.3125 0 0
0.3125 0 0
0.3125 0 0
0.3125 0 0
0.3125 0 0
0.3125 0 0
0.3125 0 0
0.3125 0 0
0.3125 0 0
0.3125 0 0
0.3125 0 0
0.3125 0 0
0 0 0
0 0 0
0 0 0
0 0 0
0 0 0
0 0 0
0 0 0
0 0 0
0.03125 0 0
0.03125 0 0
0.03125 0 0
0.03125 0 0
0.03125 0 0
0.03125 0 0
0.03125 0 0
0.03125 0 0
0.03125 0 0
0.03125 0 0
0.03125 0 0
0.03125 0 0
0.03125 0 0
0.03125 0 0
0.03125 0 0
0.03125 0 0
0.03125 0 0
0.03125 0 0
0.03125 0 0
0.03125 0 0
0.03125 0 0
0.03125 0 0
0.03125 0 0
0.03125 0 0
