
     Program PWSCF v.7.3.1 starts on 10Feb2025 at 22:17:15 

     This program is part of the open-source Quantum ESPRESSO suite
     for quantum simulation of materials; please cite
         "P. Giannozzi et al., J. Phys.:Condens. Matter 21 395502 (2009);
         "P. Giannozzi et al., J. Phys.:Condens. Matter 29 465901 (2017);
         "P. Giannozzi et al., J. Chem. Phys. 152 154105 (2020);
          URL http://www.quantum-espresso.org", 
     in publications or presentations arising from this work. More details at
     http://www.quantum-espresso.org/quote

     Parallel version (MPI), running on     4 processors

     MPI processes distributed on     1 nodes
     68759 MiB available memory on the printing compute node when the environment starts

     Waiting for input...
     Reading input from standard input

     Current dimensions of program PWSCF are:
     Max number of different atomic species (ntypx) = 10
     Max number of k-points (npk) =  40000
     Max angular momentum in pseudopotentials (lmaxx) =  4

     gamma-point specific algorithms are used
     Found identity + (  0.0000  0.2500  0.0000) symmetry
     This is a supercell, fractional translations are disabled

     R & G space division:  proc/nbgrp/npool/nimage =       4
     Subspace diagonalization in iterative solution of the eigenvalue problem:
     one sub-group per band group will be used
     custom distributed-memory algorithm (size of sub-group:  2*  2 procs)


     Parallelization info
     --------------------
     sticks:   dense  smooth     PW     G-vecs:    dense   smooth      PW
     Min        3367    1345    335               750333   189832   23723
     Max        3368    1348    338               750340   189839   23738
     Sum       13471    5389   1345              3001349   759343   94917

     Using Slab Decomposition



     bravais-lattice index     =            4
     lattice parameter (alat)  =      19.7616  a.u.
     unit-cell volume          =   15896.6765 (a.u.)^3
     number of atoms/cell      =           64
     number of atomic types    =            1
     number of electrons       =      1280.00
     number of Kohn-Sham states=          768
     kinetic-energy cutoff     =      50.0000  Ry
     charge density cutoff     =     500.0000  Ry
     scf convergence threshold =      1.0E-06
     mixing beta               =       0.7000
     number of iterations used =            8  plain     mixing
     Exchange-correlation= SLA  PW   PBE  PBE
                           (   1   4   3   4   0   0   0)

     celldm(1)=  19.761622  celldm(2)=   0.000000  celldm(3)=   2.378526
     celldm(4)=   0.000000  celldm(5)=   0.000000  celldm(6)=   0.000000

     crystal axes: (cart. coord. in units of alat)
               a(1) = (   1.000000   0.000000   0.000000 )  
               a(2) = (  -0.500000   0.866025   0.000000 )  
               a(3) = (   0.000000   0.000000   2.378526 )  

     reciprocal axes: (cart. coord. in units 2 pi/alat)
               b(1) = (  1.000000  0.577350 -0.000000 )  
               b(2) = (  0.000000  1.154701  0.000000 )  
               b(3) = (  0.000000 -0.000000  0.420428 )  


     PseudoPot. # 1 for Zn read from file:
     /home/ys/qe-7.3.1/pseudo/Standard_solid-state_pseudopotentials_SSSP_1.3.0_PBE_efficiency/Zn_pbe_v1.uspp.F.UPF
     MD5 check sum: df62231357ef9e81f77b2b3087fa5675
     Pseudo is Ultrasoft, Zval = 20.0
     Generated by new atomic code, or converted to UPF format
     Using radial grid of  943 points,  6 beta functions with: 
                l(1) =   0
                l(2) =   0
                l(3) =   1
                l(4) =   1
                l(5) =   2
                l(6) =   2
     Q(r) pseudized with  8 coefficients,  rinner =    1.100   1.100   1.100
                                                       1.100   1.100

     atomic species   valence    mass     pseudopotential
     Zn               20.00    65.39000     Zn( 1.00)

     12 Sym. Ops. (no inversion) found



   Cartesian axes

     site n.     atom                  positions (alat units)
         1        Zn     tau(   1) = (  -0.0000005   0.1443384   0.1165000  )
         2        Zn     tau(   2) = (  -0.1250010   0.3608456   0.1165000  )
         3        Zn     tau(   3) = (  -0.2500014   0.5773528   0.1165000  )
         4        Zn     tau(   4) = (  -0.3750019   0.7938599   0.1165000  )
         5        Zn     tau(   5) = (   0.2500005   0.1443384   0.1165000  )
         6        Zn     tau(   6) = (   0.1250000   0.3608456   0.1165000  )
         7        Zn     tau(   7) = (  -0.0000005   0.5773528   0.1165000  )
         8        Zn     tau(   8) = (  -0.1250010   0.7938599   0.1165000  )
         9        Zn     tau(   9) = (   0.5000014   0.1443384   0.1165000  )
        10        Zn     tau(  10) = (   0.3750010   0.3608456   0.1165000  )
        11        Zn     tau(  11) = (   0.2500005   0.5773528   0.1165000  )
        12        Zn     tau(  12) = (   0.1250000   0.7938599   0.1165000  )
        13        Zn     tau(  13) = (   0.7500024   0.1443384   0.1165000  )
        14        Zn     tau(  14) = (   0.6250019   0.3608456   0.1165000  )
        15        Zn     tau(  15) = (   0.5000014   0.5773528   0.1165000  )
        16        Zn     tau(  16) = (   0.3750010   0.7938599   0.1165000  )
        17        Zn     tau(  17) = (  -0.0000005   0.1443384   0.3495001  )
        18        Zn     tau(  18) = (  -0.1250010   0.3608456   0.3495001  )
        19        Zn     tau(  19) = (  -0.2500014   0.5773528   0.3495001  )
        20        Zn     tau(  20) = (  -0.3750019   0.7938599   0.3495001  )
        21        Zn     tau(  21) = (   0.2500005   0.1443384   0.3495001  )
        22        Zn     tau(  22) = (   0.1250000   0.3608456   0.3495001  )
        23        Zn     tau(  23) = (  -0.0000005   0.5773528   0.3495001  )
        24        Zn     tau(  24) = (  -0.1250010   0.7938599   0.3495001  )
        25        Zn     tau(  25) = (   0.5000014   0.1443384   0.3495001  )
        26        Zn     tau(  26) = (   0.3750010   0.3608456   0.3495001  )
        27        Zn     tau(  27) = (   0.2500005   0.5773528   0.3495001  )
        28        Zn     tau(  28) = (   0.1250000   0.7938599   0.3495001  )
        29        Zn     tau(  29) = (   0.7500024   0.1443384   0.3495001  )
        30        Zn     tau(  30) = (   0.6250019   0.3608456   0.3495001  )
        31        Zn     tau(  31) = (   0.5000014   0.5773528   0.3495001  )
        32        Zn     tau(  32) = (   0.3750010   0.7938599   0.3495001  )
        33        Zn     tau(  33) = (   0.1250010   0.0721688   0.1165000  )
        34        Zn     tau(  34) = (   0.0000005   0.2886760   0.1165000  )
        35        Zn     tau(  35) = (  -0.1250000   0.5051831   0.1165000  )
        36        Zn     tau(  36) = (  -0.2500005   0.7216903   0.1165000  )
        37        Zn     tau(  37) = (   0.3750019   0.0721688   0.1165000  )
        38        Zn     tau(  38) = (   0.2500014   0.2886760   0.1165000  )
        39        Zn     tau(  39) = (   0.1250010   0.5051831   0.1165000  )
        40        Zn     tau(  40) = (   0.0000005   0.7216903   0.1165000  )
        41        Zn     tau(  41) = (   0.6250029   0.0721688   0.1165000  )
        42        Zn     tau(  42) = (   0.5000024   0.2886760   0.1165000  )
        43        Zn     tau(  43) = (   0.3750019   0.5051831   0.1165000  )
        44        Zn     tau(  44) = (   0.2500014   0.7216903   0.1165000  )
        45        Zn     tau(  45) = (   0.8750038   0.0721688   0.1165000  )
        46        Zn     tau(  46) = (   0.7500033   0.2886760   0.1165000  )
        47        Zn     tau(  47) = (   0.6250029   0.5051831   0.1165000  )
        48        Zn     tau(  48) = (   0.5000024   0.7216903   0.1165000  )
        49        Zn     tau(  49) = (   0.1250010   0.0721688   0.3495001  )
        50        Zn     tau(  50) = (   0.0000005   0.2886760   0.3495001  )
        51        Zn     tau(  51) = (  -0.1250000   0.5051831   0.3495001  )
        52        Zn     tau(  52) = (  -0.2500005   0.7216903   0.3495001  )
        53        Zn     tau(  53) = (   0.3750019   0.0721688   0.3495001  )
        54        Zn     tau(  54) = (   0.2500014   0.2886760   0.3495001  )
        55        Zn     tau(  55) = (   0.1250010   0.5051831   0.3495001  )
        56        Zn     tau(  56) = (   0.0000005   0.7216903   0.3495001  )
        57        Zn     tau(  57) = (   0.6250029   0.0721688   0.3495001  )
        58        Zn     tau(  58) = (   0.5000024   0.2886760   0.3495001  )
        59        Zn     tau(  59) = (   0.3750019   0.5051831   0.3495001  )
        60        Zn     tau(  60) = (   0.2500014   0.7216903   0.3495001  )
        61        Zn     tau(  61) = (   0.8750038   0.0721688   0.3495001  )
        62        Zn     tau(  62) = (   0.7500033   0.2886760   0.3495001  )
        63        Zn     tau(  63) = (   0.6250029   0.5051831   0.3495001  )
        64        Zn     tau(  64) = (   0.5000024   0.7216903   0.3495001  )

     number of k points=     1  Gaussian smearing, width (Ry)=  0.0100
                       cart. coord. in units 2pi/alat
        k(    1) = (   0.0000000   0.0000000   0.0000000), wk =   2.0000000

     Dense  grid:  1500675 G-vectors     FFT dimensions: ( 144, 144, 360)

     Smooth grid:   379672 G-vectors     FFT dimensions: (  90,  90, 216)

     Estimated max dynamical RAM per process >       2.01 GB

     Estimated total dynamical RAM >       8.06 GB

     Initial potential from superposition of free atoms

     starting charge    1279.9910, renormalised to    1280.0000

     negative rho (up, down):  2.536E-03 0.000E+00
     Starting wfcs are  832 randomized atomic wfcs
                                                                                                                                                                                                                                                                                                                                                                                                  ethr =  8.32E-05,  avg # of iterations =  4.0

     negative rho (up, down):  1.108E-03 0.000E+00

     total cpu time spent up to now is      415.0 secs

     total energy              =  -29458.64197974 Ry
     estimated scf accuracy    <       1.06387890 Ry

     iteration #  2     ecut=    50.00 Ry     beta= 0.70
     Davidson diagonalization with overlap
     ethr =  8.31E-05,  avg # of iterations =  5.0

     negative rho (up, down):  1.779E-03 0.000E+00

     total cpu time spent up to now is      596.2 secs

     total energy              =  -29458.57231921 Ry
     estimated scf accuracy    <       0.96457981 Ry

     iteration #  3     ecut=    50.00 Ry     beta= 0.70
     Davidson diagonalization with overlap
     ethr =  7.54E-05,  avg # of iterations =  3.0

     negative rho (up, down):  2.040E-03 0.000E+00

     total cpu time spent up to now is      762.9 secs

     total energy              =  -29458.81691081 Ry
     estimated scf accuracy    <       0.23285493 Ry

     iteration #  4     ecut=    50.00 Ry     beta= 0.70
     Davidson diagonalization with overlap
     ethr =  1.82E-05,  avg # of iterations =  2.0

     negative rho (up, down):  2.119E-03 0.000E+00

     total cpu time spent up to now is      926.4 secs

     total energy              =  -29458.85641452 Ry
     estimated scf accuracy    <       0.02291115 Ry

     iteration #  5     ecut=    50.00 Ry     beta= 0.70
     Davidson diagonalization with overlap
     ethr =  1.79E-06,  avg # of iterations =  5.0

     negative rho (up, down):  2.143E-03 0.000E+00

     total cpu time spent up to now is     1112.0 secs

     total energy              =  -29458.85957265 Ry
     estimated scf accuracy    <       0.01914942 Ry

     iteration #  6     ecut=    50.00 Ry     beta= 0.70
     Davidson diagonalization with overlap
     ethr =  1.50E-06,  avg # of iterations =  6.0

     negative rho (up, down):  2.150E-03 0.000E+00

     total cpu time spent up to now is     1265.7 secs

     total energy              =  -29458.86108009 Ry
     estimated scf accuracy    <       0.01483950 Ry

     iteration #  7     ecut=    50.00 Ry     beta= 0.70
     Davidson diagonalization with overlap
     ethr =  1.16E-06,  avg # of iterations =  2.0

     negative rho (up, down):  2.152E-03 0.000E+00

     total cpu time spent up to now is     1412.7 secs

     total energy              =  -29458.86152585 Ry
     estimated scf accuracy    <       0.00242150 Ry

     iteration #  8     ecut=    50.00 Ry     beta= 0.70
     Davidson diagonalization with overlap
     ethr =  1.89E-07,  avg # of iterations =  2.0

     negative rho (up, down):  2.152E-03 0.000E+00

     total cpu time spent up to now is     1562.0 secs

     total energy              =  -29458.86175011 Ry
     estimated scf accuracy    <       0.00000848 Ry

     iteration #  9     ecut=    50.00 Ry     beta= 0.70
     Davidson diagonalization with overlap
     ethr =  6.62E-10,  avg # of iterations =  2.0

     negative rho (up, down):  2.152E-03 0.000E+00

     total cpu time spent up to now is     1738.9 secs

     total energy              =  -29458.86175167 Ry
     estimated scf accuracy    <       0.00000104 Ry

     iteration # 10     ecut=    50.00 Ry     beta= 0.70
     Davidson diagonalization with overlap
     ethr =  8.10E-11,  avg # of iterations =  2.0

     negative rho (up, down):  2.152E-03 0.000E+00

     total cpu time spent up to now is     1898.6 secs

     End of self-consistent calculation

          k = 0.0000 0.0000 0.0000 ( 47459 PWs)   bands (ev):

  -129.2198-129.2166-128.9633-128.9633-128.9632-128.9631-128.9631-128.9630
  -128.9603-128.9603-128.9602-128.9601-128.9601-128.9600-128.5435-128.5435
  -128.5434-128.5433-128.5433-128.5433-128.5429-128.5428-128.5428-128.5408
  -128.5407-128.5406-128.5406-128.5406-128.5406-128.5403-128.5401-128.5401
  -127.8524-127.8524-127.8523-127.8519-127.8519-127.8518-127.8518-127.8518
  -127.8518-127.8501-127.8501-127.8499-127.8496-127.8496-127.8495-127.8495
  -127.8495-127.8494-127.4158-127.4158-127.4157-127.4157-127.4156-127.4156
  -127.4137-127.4137-127.4136-127.4136-127.4136-127.4135-127.1426-127.1407
   -85.1774 -85.1773 -85.1773 -85.1772 -85.1771 -85.1770 -85.1736 -85.1736
   -85.1735 -85.1735 -85.1733 -85.1733 -85.0714 -85.0711 -85.0711 -85.0677
   -85.0674 -85.0674 -84.9018 -84.9018 -84.9016 -84.9015 -84.9015 -84.9015
   -84.8983 -84.8983 -84.8980 -84.8980 -84.8980 -84.8980 -84.7156 -84.7153
   -84.7123 -84.7119 -84.3619 -84.3619 -84.3617 -84.3617 -84.3615 -84.3615
   -84.3588 -84.3588 -84.3586 -84.3585 -84.3584 -84.3584 -83.8879 -83.8879
   -83.8876 -83.8847 -83.8847 -83.8845 -83.6152 -83.6152 -83.6150 -83.6150
   -83.6150 -83.6150 -83.6124 -83.6124 -83.6122 -83.6122 -83.6121 -83.6121
   -82.3156 -82.2774 -82.2124 -82.2124 -82.2124 -82.2124 -82.2123 -82.2123
   -82.2102 -82.2102 -82.2101 -82.2101 -82.2100 -82.2100 -82.1711 -82.1711
   -82.1710 -82.1709 -82.1709 -82.1709 -82.1351 -82.1351 -82.1350 -82.1349
   -82.1349 -82.1348 -81.9482 -81.9481 -81.9481 -81.9454 -81.9453 -81.9453
   -81.9371 -81.9371 -81.9371 -81.9370 -81.9370 -81.9370 -81.9358 -81.9357
   -81.9357 -81.9046 -81.9046 -81.9045 -81.9045 -81.9045 -81.9044 -81.9043
   -81.9042 -81.9042 -81.5590 -81.5590 -81.5590 -81.5588 -81.5588 -81.5587
   -81.5587 -81.5587 -81.5587 -81.5317 -81.5317 -81.5316 -81.5316 -81.5315
   -81.5314 -81.5314 -81.5314 -81.5314 -81.4620 -81.4620 -81.4619 -81.4618
   -81.4618 -81.4618 -81.4601 -81.4601 -81.4600 -81.4600 -81.4600 -81.4600
   -81.3247 -81.3247 -81.3246 -81.3246 -81.3245 -81.3245 -81.3008 -81.3008
   -81.3007 -81.3006 -81.3006 -81.3006 -81.1797 -81.1579 -81.0963 -81.0961
   -81.0948 -81.0946 -80.8997 -80.8997 -80.8997 -80.8996 -80.8996 -80.8996
   -80.8984 -80.8984 -80.8984 -80.8984 -80.8983 -80.8983 -80.7197 -80.7197
   -80.7196 -80.7187 -80.7187 -80.7186 -80.6215 -80.6214 -80.6214 -80.6214
   -80.6213 -80.6213 -80.6204 -80.6203 -80.6203 -80.6203 -80.6202 -80.6202
   -15.8624 -15.8624 -15.8623 -15.8622 -15.8621 -15.8620 -15.7415 -15.7415
   -15.7414 -15.7413 -15.7412 -15.7411 -15.1686 -15.1685 -15.1683 -15.0403
   -15.0403 -15.0400 -13.7760 -13.7759 -13.7756 -13.7496 -13.7496 -13.7492
   -13.7461 -13.7344 -13.7343 -13.7342 -13.7342 -13.7340 -13.7340 -13.6057
   -13.6057 -13.6056 -13.6055 -13.6054 -13.6054 -13.4429 -13.1260 -13.1260
   -13.1260 -13.1260 -13.1258 -13.1257 -12.9042 -12.9042 -12.9041 -12.9040
   -12.9039 -12.9038 -12.8668 -12.8668 -12.8667 -12.8667 -12.8665 -12.8665
   -12.5072 -12.5069 -12.5069 -12.4816 -12.4816 -12.4815 -12.4815 -12.4813
   -12.4813 -12.4350 -12.4350 -12.4346 -12.4346 -12.4346 -12.4346 -12.4084
   -12.4084 -12.4080 -12.4080 -12.4080 -12.4080 -12.2839 -12.2839 -12.2838
   -12.2837 -12.2837 -12.2836 -12.1467 -12.1466 -12.1466 -12.1464 -12.1464
   -12.1464 -12.0976 -12.0975 -12.0973 -12.0973 -12.0973 -12.0973 -12.0662
   -12.0662 -12.0660 -12.0439 -12.0437 -12.0437 -11.9040 -11.7620 -11.7620
   -11.7618 -11.7618 -11.7617 -11.7617 -11.6828 -11.6828 -11.6826 -11.6825
   -11.6825 -11.6825 -11.6126 -11.6123 -11.5866 -11.5865 -11.5865 -11.5864
   -11.5863 -11.5863 -11.4783 -11.4782 -11.4782 -11.4781 -11.4780 -11.4780
   -11.2574 -11.2571 -11.2128 -11.2128 -11.2126 -11.1903 -11.1900 -11.1900
   -11.1768 -11.1768 -11.1766 -11.1766 -11.1765 -11.1765 -10.9995 -10.9993
   -10.9993 -10.9118 -10.9118 -10.9116 -10.9115 -10.9115 -10.9115 -10.5968
   -10.5968 -10.5968 -10.5967 -10.5967 -10.5966 -10.5507 -10.5506 -10.5311
   -10.5311 -10.4999 -10.4999 -10.4553 -10.4553 -10.3360 -10.3360 -10.3358
   -10.3358 -10.3358 -10.3358  -9.5332  -9.5331  -9.5331  -9.5331  -9.5330
    -9.5330  -8.8087  -8.8086  -8.8086  -8.5354  -8.5353  -8.5353  -8.5353
    -8.5352  -8.5352  -8.2459  -8.2459  -8.2458  -8.2458  -8.2457  -8.2457
    -8.1087  -8.1087  -8.1086  -8.1086  -8.1086  -8.1085  -8.0827  -8.0826
    -8.0826  -8.0826  -8.0824  -8.0824  -8.0298  -8.0298  -8.0296  -7.9138
    -7.9138  -7.9138  -7.7489  -7.7489  -7.7488  -7.7487  -7.7487  -7.7487
    -7.7256  -7.6468  -7.6468  -7.6467  -7.6467  -7.6467  -7.6467  -7.6209
    -7.6209  -7.6208  -7.6208  -7.6208  -7.6208  -7.4460  -7.4460  -7.4458
    -7.3840  -7.3840  -7.3838  -7.3838  -7.3837  -7.3837  -7.3125  -7.3125
    -7.3123  -7.3123  -7.3123  -7.3123  -7.2472  -7.2472  -7.2471  -7.2471
    -7.2470  -7.2470  -7.1840  -7.1839  -7.1839  -6.8417  -6.8417  -6.8415
    -6.8415  -6.8415  -6.8415  -6.7195  -6.7192  -6.5332  -6.5330  -6.4650
    -6.4650  -6.4650  -6.4649  -6.4649  -6.4649  -6.2153  -6.1696  -6.1696
    -6.1696  -6.1695  -6.1694  -6.1694  -6.0453  -6.0453  -6.0453  -6.0453
    -6.0452  -6.0452  -5.9307  -5.9307  -5.9307  -5.9306  -5.9306  -5.9306
    -5.7565  -5.7565  -5.7565  -5.7564  -5.7564  -5.7564  -5.7050  -5.7050
    -5.7049  -5.6505  -5.6505  -5.6505  -5.6504  -5.6504  -5.6504  -5.6228
    -5.6228  -5.6227  -5.5848  -5.5644  -5.5642  -5.5642  -5.5019  -5.5019
    -5.5018  -5.5018  -5.5017  -5.5017  -5.4468  -5.4464  -5.4464  -5.4328
    -5.4328  -5.4328  -5.4328  -5.4328  -5.4327  -5.4327  -5.4324  -5.4324
    -4.5909  -4.5908  -4.5907  -4.2099  -4.2099  -4.2098  -4.2098  -4.2096
    -4.2096  -3.9893  -3.9893  -3.9892  -3.9892  -3.9891  -3.9891  -3.8945
    -2.8156  -2.8156  -2.8156  -2.8156  -2.8155  -2.8155  -1.6179  -1.6178
    -1.6177  -1.2171  -1.2170  -1.2170  -0.7287  -0.7287  -0.7287  -0.7286
    -0.7286  -0.7286   1.2519   1.2519   1.2519   2.1102   2.1102   2.1102
     2.1102   2.1103   2.1103   2.3384   2.3384   2.3384   2.3385   2.3385
     2.3385   2.6481   3.6528   3.6528   3.6528   3.6529   3.6529   3.6529
     4.3581   4.3583   4.3583   4.8292   4.8292   4.8292   4.8293   4.8293
     4.8293   4.9034   4.9035   4.9035   4.9035   4.9036   4.9036   5.6243
     5.6243   5.6244   5.6244   5.6244   5.6244   6.3168   6.7133   6.7133
     6.7133   6.7133   6.7133   6.7133   6.7796   6.7796   6.7798   6.8327
     7.0681   7.8446   8.0888   8.0888   8.0888   8.2005   8.2005   8.2006
     8.2006   8.2006   8.2006   8.2739   8.7274   8.7274   8.7274   8.7274
     8.7274   8.7274   8.9075   8.9075   8.9075   8.9075   8.9075   8.9075
     9.0513   9.0514   9.0514   9.0514   9.0514   9.0514   9.5766   9.7023
     9.7023   9.7023   9.7023   9.7023   9.7023  10.1134  10.1134  10.1134
    10.1134  10.1134  10.1134  10.1396  10.1521  10.1521  10.1521  10.1522
    10.1522  10.1522  10.3243  10.3243  10.3243  10.3243  10.3244  10.3244
    10.6669  10.6669  10.6669  10.7057  10.7057  10.7057  10.9183  10.9183
    10.9184  11.2018  11.2018  11.2018  11.2018  11.2018  11.2018  11.4010
    11.4010  11.4011  11.4011  11.4011  11.4011  11.5096  11.5096  11.5096
    11.5096  11.5096  11.5096  11.8453  11.8453  11.8453  11.8453  11.8454
    11.8454  11.9057  11.9575  11.9575  11.9575  11.9575  11.9575  11.9575

     the Fermi energy is     4.0141 ev

!    total energy              =  -29458.86175167 Ry
     estimated scf accuracy    <       0.00000027 Ry
     smearing contrib. (-TS)   =      -0.00005758 Ry
     internal energy E=F+TS    =  -29458.86169409 Ry

     The total energy is F=E-TS. E is the sum of the following terms:
     one-electron contribution = -343868.52587473 Ry
     hartree contribution      =  171731.88053648 Ry
     xc contribution           =   -2757.56128475 Ry
     ewald contribution        =  145435.34492892 Ry

     convergence has been achieved in  10 iterations

     Writing all to output data dir /home/ys/Research/PSID_server_room/qe/zinc_surface/scf/zn_002_4layers_scf/pwscf.save/ :
     XML data file, charge density, pseudopotentials, collected wavefunctions

     init_run     :     46.40s CPU     46.85s WALL (       1 calls)
     electrons    :   1839.30s CPU   1851.82s WALL (       1 calls)

     Called by init_run:
     wfcinit      :     40.85s CPU     41.10s WALL (       1 calls)
     potinit      :      0.57s CPU      0.62s WALL (       1 calls)
     hinit0       :      0.13s CPU      0.15s WALL (       1 calls)

     Called by electrons:
     c_bands      :   1617.33s CPU   1626.00s WALL (      11 calls)
     sum_band     :    169.49s CPU    171.65s WALL (      11 calls)
     v_of_rho     :      5.83s CPU      6.17s WALL (      11 calls)
     newd         :     50.34s CPU     51.73s WALL (      11 calls)
     mix_rho      :      0.77s CPU      0.80s WALL (      11 calls)

     Called by c_bands:
     init_us_2    :      0.71s CPU      0.73s WALL (      23 calls)
     regterg      :   1615.50s CPU   1624.16s WALL (      11 calls)

     Called by *egterg:
     rdiaghg      :     48.14s CPU     48.96s WALL (      51 calls)
     h_psi        :    514.99s CPU    518.74s WALL (      53 calls)
     s_psi        :    170.04s CPU    170.45s WALL (      53 calls)
     g_psi        :      0.18s CPU      0.18s WALL (      41 calls)

     Called by h_psi:
     h_psi:calbec :    281.41s CPU    282.20s WALL (      53 calls)
     vloc_psi     :     63.67s CPU     66.22s WALL (      53 calls)
     add_vuspsi   :    169.54s CPU    169.94s WALL (      53 calls)

     General routines
     calbec       :    394.88s CPU    395.99s WALL (      64 calls)
     fft          :      3.76s CPU      4.06s WALL (     119 calls)
     ffts         :      0.11s CPU      0.12s WALL (      22 calls)
     fftw         :     52.51s CPU     54.96s WALL (   25230 calls)
     interpolate  :      0.43s CPU      0.45s WALL (      11 calls)

     Parallel routines

     PWSCF        :  31m25.97s CPU  31m39.68s WALL


   This run was terminated on:  22:43:22  10Feb2025            

=------------------------------------------------------------------------------=
   JOB DONE.
=------------------------------------------------------------------------------=
