
                                 *****************
                                 * O   R   C   A *
                                 *****************

                                            #,                                       
                                            ###                                      
                                            ####                                     
                                            #####                                    
                                            ######                                   
                                           ########,                                 
                                     ,,################,,,,,                         
                               ,,#################################,,                 
                          ,,##########################################,,             
                       ,#########################################, ''#####,          
                    ,#############################################,,   '####,        
                  ,##################################################,,,,####,       
                ,###########''''           ''''###############################       
              ,#####''   ,,,,##########,,,,          '''####'''          '####       
            ,##' ,,,,###########################,,,                        '##       
           ' ,,###''''                  '''############,,,                           
         ,,##''                                '''############,,,,        ,,,,,,###''
      ,#''                                            '''#######################'''  
     '                                                          ''''####''''         
             ,#######,   #######,   ,#######,      ##                                
            ,#'     '#,  ##    ##  ,#'     '#,    #''#        ,####,   ,####,        
            ##       ##  ##   ,#'  ##            #'  '#       #'       #'  '#        
            ##       ##  #######   ##           ,######,      #####,   #    #        
            '#,     ,#'  ##    ##  '#,     ,#' ,#      #,     #,   #   #,  ,#        
             '#######'   ##     ##  '#######'  #'      '#     '####' # '####'        



                #########################################################
                #                        -***-                          #
                #          Department of theory and spectroscopy        #
                #                                                       #
                #                      Frank Neese                      #
                #                                                       #
                #     Directorship, Architecture, Infrastructure        #
                #                    SHARK, DRIVERS                     #
                #        Core code/Algorithms in most modules           #
                #                                                       #
                #        Max Planck Institute fuer Kohlenforschung      #
                #                Kaiser Wilhelm Platz 1                 #
                #                 D-45470 Muelheim/Ruhr                 #
                #                      Germany                          #
                #                                                       #
                #                  All rights reserved                  #
                #                        -***-                          #
                #########################################################


                         Program Version 6.0.1  -  RELEASE   -


 With contributions from (in alphabetic order):
[Max-Planck-Institut fuer Kohlenforschung]                               
  Daniel Aravena         : Magnetic Suceptibility                        
  Michael Atanasov       : Ab Initio Ligand Field Theory (pilot matlab implementation)
  Alexander A. Auer      : GIAO ZORA, VPT2 properties, NMR spectrum      
  Ute Becker             : All parallelization in ORCA, NUMFREQ, NUMCALC 
  Giovanni Bistoni       : ED, misc. LED, open-shell LED, HFLD           
  Martin Brehm           : Molecular dynamics                            
  Dmytro Bykov           : pre 5.0 version of the SCF Hessian            
  Marcos Casanova-Páez   : Triplet and SCS-CIS(D). UHF-(DLPNO)-IP/EA/STEOM-CCSD. UHF-CVS-IP/STEOM-CCSD   
  Vijay G. Chilkuri      : MRCI spin determinant printing, contributions to CSF-ICE 
  Pauline Colinet        : FMM embedding                                 
  Dipayan Datta          : RHF DLPNO-CCSD density                        
  Achintya Kumar Dutta   : EOM-CC, STEOM-CC                              
  Nicolas Foglia         : Exact transition moments, OPA infrastructure, MCD improvements    
  Dmitry Ganyushin       : Spin-Orbit,Spin-Spin,Magnetic field MRCI      
  Miquel Garcia-Rates    : C-PCM and meta-GGA Hessian, CCSD/C-PCM, Gaussian charge scheme 
  Tiago L. C. Gouveia    : GS-ROHF, GS-ROCIS                             
  Yang Guo               : DLPNO-NEVPT2, F12-NEVPT2, CIM, IAO-localization        
  Andreas Hansen         : Spin unrestricted coupled pair/coupled cluster methods 
  Ingolf Harden          : AUTO-CI MPn and infrastructure                
  Benjamin Helmich-Paris : MC-RPA, TRAH-(SCF,CASSCF), AVAS, COSX integrals, SCF dyn. polar. 
  Lee Huntington         : MR-EOM, pCC                                   
  Robert Izsak           : Overlap fitted RIJCOSX, COSX-SCS-MP3, EOM     
  Riya Kayal             : Wick's Theorem for AUTO-CI, AUTO-CI UHF-CCSDT 
  Emily Kempfer          : AUTO-CI, RHF CISDT and CCSDT                  
  Christian Kollmar      : KDIIS, OOCD, Brueckner-CCSD(T), CCSD density, CASPT2, CASPT2-K, improved NEVPT2 
  Axel Koslowski         : Symmetry handling                             
  Simone Kossmann        : meta-GGA functionals, TD-DFT gradient, OOMP2, (MP2 Hessian; deprecated post 5.0) 
  Lucas Lang             : DCDCAS                                        
  Marvin Lechner         : AUTO-CI (C++ implementation), FIC-MRCC        
  Spencer Leger          : CASSCF response                               
  Dagmar Lenk            : GEPOL surface, SMD, ORCA-2-JSON               
  Dimitrios Liakos       : Extrapolation schemes; Compound Job, initial MDCI parallelization 
  Dimitrios Manganas     : Further ROCIS development; embedding schemes. LFT, Crystal Embedding 
  Dimitrios Pantazis     : SARC Basis sets                               
  Anastasios Papadopoulos: AUTO-CI, single reference methods and gradients 
  Taras Petrenko         : pre 6.0 DFT Hessian and TD-DFT gradient, (ASA, deprecated), ECA, 1-Electron XAS/XES, NRVS 
  Peter Pinski           : DLPNO-MP2, DLPNO-MP2 Gradient                 
  Christoph Reimann      : Effective Core Potentials                     
  Marius Retegan         : Local ZFS, SOC                                
  Christoph Riplinger    : Optimizer, TS searches, QM/MM, DLPNO-CCSD(T), (RO)-DLPNO pert. Triples 
  Michael Roemelt        : Original ROCIS implementation                 
  Masaaki Saitow         : Open-shell DLPNO-CCSD energy and density      
  Barbara Sandhoefer     : DKH picture change effects                    
  Kantharuban Sivalingam : CASSCF convergence/infrastructure, NEVPT2 and variants, FIC-MRCI 
  Bernardo de Souza      : ESD, SOC TD-DFT                               
  Georgi L. Stoychev     : AutoAux, RI-MP2 NMR, DLPNO-MP2 response, X2C  
  Van Anh Tran           : RI-MP2 g-tensors                              
  Willem Van den Heuvel  : Paramagnetic NMR                              
  Zikuan Wang            : NOTCH, Electric field optimization            
  Frank Wennmohs         : Technical directorship and infrastructure     
  Hang Xu                : AUTO-CI-Response properties                   
                                                                         
[FACCTs GmbH]                                                            
  Markus Bursch, Miquel Garcia-Rates, Christoph Riplinger, Bernardo de Souza, Georgi L. Stoychev 
                                                                 
  APM, Basis sets (HGBS, AHGBS, def-TZVP (Ac-Lr), def2-XVPD (La-Lu)), CI-OPT, improved COSX, DLPNO-Multilevel,           
  DOCKER, DRACO, updates on ESD, GOAT, IRC, LR-CPCM, MBIS, meta-GGA TD-DFT gradient, ML-optimized integration grids, 
  MM, NACMEs, nearIR, NEB, NEB-TS, NL-DFT gradient (VV10), 2- and 3-layer-ONIOM, interface openCOSMO-RS, QMMM,   
  Crystal-QMMM, SF, symmetry and pop. for TD-DFT, r2SCAN hybrids, SOLVATOR                                   
                                                                         
[Other institutions]                                                     
  V. Asgeirsson          : NEB                                           
  Christoph Bannwarth    : sTDA-DFT, sTD-DFT, PBEh-3c, B97-3c, D3        
  Sebastian Ehlert       : rSCAN, r2SCAN, r2SCAN-3c, D4, dhf basis sets  
  Marvin Friede          : D4 for Fr, Ra, Ac-Lr                          
  Lars Goerigk           : TD-DFT with DH, B97 family of functionals     
  Stefan Grimme          : VdW corrections, initial TS optimization, DFT functionals, gCP, sTDA/sTD-DF 
  Waldemar Hujo          : DFT-NL                                        
  H. Jonsson             : NEB                                           
  Holger Kruse           : gCP                                           
  Marcel Mueller         : wB97X-3c, vDZP basis set                      
  Hagen Neugebauer       : wr2SCAN                                       
  Tobias Risthaus        : range-separated hybrid DFT                    
  Lukas Wittmann         : regularized MP2, r2SCAN double-hybrids, wr2SCAN        
                                                                         
We gratefully acknowledge several colleagues who have allowed us to      
interface, adapt or use parts of their codes:                            
  Ed Valeev, F. Pavosevic, A. Kumar             : LibInt (2-el integral package), F12 methods 
  Garnet Chan, S. Sharma, J. Yang, R. Olivares  : DMRG                   
  Ulf Ekstrom                                   : XCFun DFT Library      
  Mihaly Kallay                                 : mrcc  (arbitrary order and MRCC methods)
  Frank Weinhold                                : gennbo (NPA and NBO analysis)           
  Simon Mueller                                 : openCOSMO-RS                            
  Christopher J. Cramer and Donald G. Truhlar   : smd solvation model                     
  S Lehtola, MJT Oliveira, MAL Marques          : LibXC Library                           
  Liviu Ungur et al                             : ANISO software                          


 Your calculation uses the libint2 library for the computation of 2-el integrals
 For citations please refer to: http://libint.valeyev.net

 Your ORCA version has been built with support for libXC version: 6.2.2
 For citations please refer to: https://libxc.gitlab.io

 This ORCA versions uses:
   CBLAS   interface :  Fast vector & matrix operations
   LAPACKE interface :  Fast linear algebra routines
   SCALAPACK package :  Parallel linear algebra routines
   Shared memory     :  Shared parallel matrices
   BLAS/LAPACK       :  OpenBLAS 0.3.27  USE64BITINT DYNAMIC_ARCH NO_AFFINITY SkylakeX SINGLE_THREADED
        Core in use  :  SkylakeX
   Copyright (c) 2011-2014, The OpenBLAS Project


NOTE: MaxCore=4000 MB was set to SCF,MP2,MDCI,CIPSI,MRCI and CIS
      => If you want to overwrite this, your respective input block should be placed after the MaxCore statement
Your calculation utilizes the atom-pairwise dispersion correction
with the Becke-Johnson damping scheme (D3BJ)


Warning: RI is on but no J-basis has been assigned. Assigning Def2/J (nothing to worry about!)
================================================================================

----- Orbital basis set information -----
Your calculation utilizes the basis: def2-SVP
   F. Weigend and R. Ahlrichs, Phys. Chem. Chem. Phys. 7, 3297 (2005).

----- AuxJ basis set information -----
Your calculation utilizes the auxiliary basis: def2/J
   F. Weigend, Phys. Chem. Chem. Phys. 8, 1057 (2006).

================================================================================
                                        WARNINGS
                       Please study these warnings very carefully!
================================================================================


WARNING: Geometry Optimization
  ===> : Switching off AutoStart
         For restart on a previous wavefunction, please use MOREAD

================================================================================
                                       INPUT FILE
================================================================================
NAME = 4nitroaniline_water_2_OPT.inp
|  1> ! B3LYP def2-SVP OPT TightSCF D3BJ
|  2> 
|  3> 
|  4> %maxcore 4000
|  5> 
|  6> %pal
|  7> nprocs 28
|  8> end
|  9> 
| 10> * xyz 0 1
| 11> O        2.7210600761      1.0832376383     -0.0001510332                 
| 12> O        2.7210794396     -1.0832419814     -0.0004122870                 
| 13> N        2.1503728454     -0.0000218379     -0.0001593443                 
| 14> N       -3.4745380812      0.0000055801      0.0012848393                 
| 15> C        0.6905288595     -0.0000018501      0.0000891668                 
| 16> C       -2.1103810173     -0.0000001179      0.0004401593                 
| 17> C        0.0003351126      1.2162003143      0.0003383714                 
| 18> C        0.0003360811     -1.2162025009      0.0000061340                 
| 19> C       -1.3858459997      1.2163606335      0.0005047746                 
| 20> C       -1.3858468463     -1.2163598600      0.0001728853                 
| 21> H        0.5691142954      2.1455814069      0.0003548830                 
| 22> H        0.5691223088     -2.1455809175     -0.0002270924                 
| 23> H       -1.9290788518      2.1648181612      0.0007315711                 
| 24> H       -1.9290857576     -2.1648142635      0.0001370269                 
| 25> H       -3.9941298338      0.8654646063     -0.0030400889                 
| 26> H       -3.9941426307     -0.8654450113     -0.0032699658                 
| 27> O       -3.9734051077      0.0422363015     -2.7251756787                 
| 28> H       -3.2469409185      0.0764431024     -3.3623371872                 
| 29> H       -3.5221145033      0.1240744787     -1.8739588349                 
| 30> *           
| 31> 
| 32> 
| 33>                          ****END OF INPUT****
================================================================================

                       *****************************
                       * Geometry Optimization Run *
                       *****************************

Geometry optimization settings:
Update method            Update   .... BFGS
Choice of coordinates    CoordSys .... (2022) Redundant Internals
Initial Hessian          InHess   .... Almloef's Model
Max. no of cycles        MaxIter  .... 57

Convergence Tolerances:
Energy Change            TolE     ....  5.0000e-06 Eh
Max. Gradient            TolMAXG  ....  3.0000e-04 Eh/bohr
RMS Gradient             TolRMSG  ....  1.0000e-04 Eh/bohr
Max. Displacement        TolMAXD  ....  4.0000e-03 bohr
RMS Displacement         TolRMSD  ....  2.0000e-03 bohr
Strict Convergence                .... False

------------------------------------------------------------------------------
                        ORCA OPTIMIZATION COORDINATE SETUP
------------------------------------------------------------------------------

The optimization will be done in redundant internal coordinates (2022)
Making redundant internal coordinates   ...  (2022 redundants) done
Evaluating the initial hessian          ...  (Almloef) done
Evaluating the coordinates              ...  done
Calculating the B-matrix                .... done
Calculating the G-matrix                .... done
Diagonalizing the G-matrix              .... done
The first mode is                       ....   78
The number of degrees of freedom        ....   51

    -----------------------------------------------------------------
                    Redundant Internal Coordinates


    -----------------------------------------------------------------
         Definition                    Initial Value    Approx d2E/dq
    -----------------------------------------------------------------
      1. B(N   2,O   1)                  1.2244         0.921024   
      2. B(N   2,O   0)                  1.2244         0.920937   
      3. B(C   4,N   2)                  1.4598         0.432956   
      4. B(C   5,N   3)                  1.3642         0.615327   
      5. B(C   6,C   4)                  1.3984         0.605817   
      6. B(C   7,C   4)                  1.3984         0.605821   
      7. B(C   8,C   5)                  1.4158         0.568302   
      8. B(C   8,C   6)                  1.3862         0.633624   
      9. B(C   9,C   7)                  1.3862         0.633619   
     10. B(C   9,C   5)                  1.4158         0.568305   
     11. B(H  10,C   6)                  1.0896         0.360611   
     12. B(H  11,C   7)                  1.0896         0.360609   
     13. B(H  12,C   8)                  1.0930         0.356138   
     14. B(H  13,C   9)                  1.0930         0.356138   
     15. B(H  14,N   3)                  1.0095         0.433564   
     16. B(H  15,N   3)                  1.0095         0.433563   
     17. B(H  17,O  16)                  0.9669         0.506942   
     18. B(H  18,C   5)                  2.3498         0.003519   
     19. B(H  18,H  15)                  2.1683         0.001313   
     20. B(H  18,H  14)                  2.0671         0.001904   
     21. B(H  18,N   3)                  1.8799         0.017711   
     22. B(H  18,O  16)                  0.9669         0.506908   
     23. A(O   0,N   2,C   4)          117.7806         0.428361   
     24. A(O   0,N   2,O   1)          124.4357         0.488209   
     25. A(O   1,N   2,C   4)          117.7838         0.428368   
     26. A(C   5,N   3,H  15)          120.9792         0.358328   
     27. A(H  14,N   3,H  18)           85.7630         0.192989   
     28. A(H  14,N   3,H  15)          118.0390         0.303449   
     29. A(H  15,N   3,H  18)           92.2382         0.192989   
     30. A(C   5,N   3,H  18)           91.4148         0.219600   
     31. A(C   5,N   3,H  14)          120.9789         0.358328   
     32. A(N   2,C   4,C   7)          119.5741         0.402865   
     33. A(N   2,C   4,C   6)          119.5757         0.402864   
     34. A(C   6,C   4,C   7)          120.8503         0.430471   
     35. A(N   3,C   5,C   8)          120.7802         0.423974   
     36. A(C   9,C   5,H  18)          110.6502         0.179773   
     37. A(C   8,C   5,C   9)          118.4390         0.420731   
     38. A(C   8,C   5,H  18)          105.1960         0.179773   
     39. A(N   3,C   5,H  18)           53.1097         0.180661   
     40. A(N   3,C   5,C   9)          120.7807         0.423975   
     41. A(C   8,C   6,H  10)          121.4599         0.354296   
     42. A(C   4,C   6,H  10)          118.9586         0.351614   
     43. A(C   4,C   6,C   8)          119.5815         0.433956   
     44. A(C   4,C   7,C   9)          119.5814         0.433956   
     45. A(C   9,C   7,H  11)          121.4604         0.354295   
     46. A(C   4,C   7,H  11)          118.9582         0.351615   
     47. A(C   6,C   8,H  12)          119.8087         0.353547   
     48. A(C   5,C   8,H  12)          119.4174         0.347112   
     49. A(C   5,C   8,C   6)          120.7739         0.429001   
     50. A(C   5,C   9,C   7)          120.7740         0.429001   
     51. A(C   5,C   9,H  13)          119.4171         0.347112   
     52. A(C   7,C   9,H  13)          119.8090         0.353547   
     53. A(N   3,H  14,H  18)           65.0921         0.139783   
     54. A(N   3,H  15,H  18)           60.0384         0.135684   
     55. A(H  17,O  16,H  18)          103.0885         0.319174   
     56. A(H  14,H  18,O  16)          136.1023         0.141611   
     57. A(N   3,H  18,O  16)          152.1734         0.196733   
     58. A(C   5,H  18,H  14)           55.5387         0.106283   
     59. A(N   3,H  18,C   5)           35.4755         0.124391   
     60. A(C   5,H  18,O  16)          168.0017         0.164612   
     61. A(H  14,H  18,H  15)           48.1709         0.100055   
     62. A(N   3,H  18,H  15)           27.7234         0.111638   
     63. A(H  15,H  18,O  16)          128.2639         0.137365   
     64. A(C   5,H  18,H  15)           54.4438         0.104888   
     65. A(N   3,H  18,H  14)           29.1448         0.113625   
     66. D(C   6,C   4,N   2,O   0)     -0.0006         0.014764   
     67. D(C   7,C   4,N   2,O   1)     -0.0012         0.014764   
     68. D(C   6,C   4,N   2,O   1)   -179.9980         0.014764   
     69. D(C   7,C   4,N   2,O   0)    179.9961         0.014764   
     70. D(C   8,C   5,N   3,H  15)    179.7013         0.035813   
     71. D(C   8,C   5,N   3,H  14)      0.3318         0.035813   
     72. D(C   9,C   5,N   3,H  14)   -179.7009         0.035813   
     73. D(C   9,C   5,N   3,H  15)     -0.3314         0.035813   
     74. D(C   8,C   5,N   3,H  18)     86.2390         0.035813   
     75. D(C   9,C   5,N   3,H  18)    -93.7937         0.035813   
     76. D(H  10,C   6,C   4,N   2)     -0.0008         0.025328   
     77. D(C   8,C   6,C   4,N   2)    179.9967         0.025328   
     78. D(H  10,C   6,C   4,C   7)   -179.9975         0.025328   
     79. D(C   8,C   6,C   4,C   7)     -0.0000         0.025328   
     80. D(C   9,C   7,C   4,N   2)   -179.9967         0.025328   
     81. D(H  11,C   7,C   4,C   6)    179.9977         0.025328   
     82. D(H  11,C   7,C   4,N   2)      0.0010         0.025328   
     83. D(C   9,C   7,C   4,C   6)      0.0000         0.025328   
     84. D(H  12,C   8,C   5,C   9)   -179.9987         0.024046   
     85. D(H  12,C   8,C   5,N   3)     -0.0307         0.024046   
     86. D(C   5,C   8,C   6,H  10)    179.9981         0.027857   
     87. D(H  12,C   8,C   6,H  10)     -0.0045         0.027857   
     88. D(C   5,C   8,C   6,C   4)      0.0007         0.027857   
     89. D(C   6,C   8,C   5,H  18)   -124.2436         0.024046   
     90. D(H  12,C   8,C   6,C   4)    179.9981         0.027857   
     91. D(C   6,C   8,C   5,C   9)     -0.0013         0.024046   
     92. D(C   6,C   8,C   5,N   3)    179.9667         0.024046   
     93. D(C   7,C   9,C   5,N   3)   -179.9667         0.024046   
     94. D(C   7,C   9,C   5,H  18)    121.5127         0.024046   
     95. D(H  13,C   9,C   5,N   3)      0.0309         0.024046   
     96. D(C   7,C   9,C   5,C   8)      0.0013         0.024046   
     97. D(H  13,C   9,C   7,H  11)      0.0040         0.027857   
     98. D(H  13,C   9,C   7,C   4)   -179.9983         0.027857   
     99. D(C   5,C   9,C   7,H  11)   -179.9983         0.027857   
    100. D(C   5,C   9,C   7,C   4)     -0.0007         0.027857   
    101. D(H  13,C   9,C   5,C   8)    179.9989         0.024046   
    102. D(H  18,H  14,N   3,H  15)    -90.2815         0.240891   
    103. D(H  18,H  14,N   3,C   5)     89.1061         0.240891   
    104. D(H  18,H  15,N   3,H  14)     86.3906         0.240890   
    105. D(H  18,H  15,N   3,C   5)    -92.9970         0.240890   
    106. D(H  14,H  18,O  16,H  17)    151.2558         0.391961   
    107. D(N   3,H  18,O  16,H  17)   -165.5949         0.391961   
    108. D(C   5,H  18,H  15,N   3)     37.6586         0.001519   
    109. D(O  16,H  18,H  15,N   3)   -156.9781         0.001519   
    110. D(C   5,H  18,H  14,N   3)    -37.1272         0.001539   
    111. D(H  15,H  18,H  14,N   3)     33.4670         0.001539   
    112. D(H  14,H  18,C   5,C   8)    -86.9018         0.001508   
    113. D(H  14,H  18,C   5,N   3)     30.4319         0.001508   
    114. D(N   3,H  18,C   5,C   9)    113.6364         0.001508   
    115. D(N   3,H  18,C   5,C   8)   -117.3337         0.001508   
    116. D(O  16,H  18,C   5,C   9)    -23.0556         0.001508   
    117. D(O  16,H  18,C   5,C   8)    105.9743         0.001508   
    118. D(O  16,H  18,C   5,N   3)   -136.6920         0.001508   
    119. D(O  16,H  18,H  14,N   3)    139.0419         0.001539   
    120. D(H  15,H  18,N   3,H  14)   -117.9580         0.001731   
    121. D(H  15,H  18,N   3,C   5)    121.0806         0.001731   
    122. D(H  14,H  18,N   3,H  15)    117.9580         0.001731   
    123. D(H  14,H  18,H  15,N   3)    -35.2619         0.001519   
    124. D(H  14,H  18,N   3,C   5)   -120.9614         0.001731   
    125. D(O  16,H  18,N   3,H  15)     41.1332         0.001731   
    126. D(O  16,H  18,N   3,H  14)    -76.8248         0.001731   
    127. D(H  15,H  18,O  16,H  17)   -142.6561         0.391961   
    128. D(O  16,H  18,N   3,C   5)    162.2138         0.001731   
    129. D(C   5,H  18,O  16,H  17)    -44.1106         0.391961   
    -----------------------------------------------------------------

Number of atoms                         .... 19
Number of degrees of freedom            .... 129


         *************************************************************
         *                GEOMETRY OPTIMIZATION CYCLE   1            *
         *************************************************************
---------------------------------
CARTESIAN COORDINATES (ANGSTROEM)
---------------------------------
  O      2.721060    1.083238   -0.000151
  O      2.721079   -1.083242   -0.000412
  N      2.150373   -0.000022   -0.000159
  N     -3.474538    0.000006    0.001285
  C      0.690529   -0.000002    0.000089
  C     -2.110381   -0.000000    0.000440
  C      0.000335    1.216200    0.000338
  C      0.000336   -1.216203    0.000006
  C     -1.385846    1.216361    0.000505
  C     -1.385847   -1.216360    0.000173
  H      0.569114    2.145581    0.000355
  H      0.569122   -2.145581   -0.000227
  H     -1.929079    2.164818    0.000732
  H     -1.929086   -2.164814    0.000137
  H     -3.994130    0.865465   -0.003040
  H     -3.994143   -0.865445   -0.003270
  O     -3.973405    0.042236   -2.725176
  H     -3.246941    0.076443   -3.362337
  H     -3.522115    0.124074   -1.873959

----------------------------
CARTESIAN COORDINATES (A.U.)
----------------------------
  NO LB      ZA    FRAG     MASS         X           Y           Z
   0 O     8.0000    0    15.999    5.142058    2.047022   -0.000285
   1 O     8.0000    0    15.999    5.142095   -2.047031   -0.000779
   2 N     7.0000    0    14.007    4.063616   -0.000041   -0.000301
   3 N     7.0000    0    14.007   -6.565925    0.000011    0.002428
   4 C     6.0000    0    12.011    1.304910   -0.000003    0.000169
   5 C     6.0000    0    12.011   -3.988042   -0.000000    0.000832
   6 C     6.0000    0    12.011    0.000633    2.298286    0.000639
   7 C     6.0000    0    12.011    0.000635   -2.298290    0.000012
   8 C     6.0000    0    12.011   -2.618869    2.298588    0.000954
   9 C     6.0000    0    12.011   -2.618871   -2.298587    0.000327
  10 H     1.0000    0     1.008    1.075470    4.054561    0.000671
  11 H     1.0000    0     1.008    1.075485   -4.054560   -0.000429
  12 H     1.0000    0     1.008   -3.645431    4.090913    0.001382
  13 H     1.0000    0     1.008   -3.645444   -4.090906    0.000259
  14 H     1.0000    0     1.008   -7.547812    1.635491   -0.005745
  15 H     1.0000    0     1.008   -7.547836   -1.635454   -0.006179
  16 O     8.0000    0    15.999   -7.508647    0.079815   -5.149836
  17 H     1.0000    0     1.008   -6.135829    0.144457   -6.353896
  18 H     1.0000    0     1.008   -6.655832    0.234467   -3.541269

--------------------------------
INTERNAL COORDINATES (ANGSTROEM)
--------------------------------
 O      0   0   0     0.000000000000     0.00000000     0.00000000
 O      1   0   0     2.166479635539     0.00000000     0.00000000
 N      2   1   0     1.224365941999    27.78249117     0.00000000
 N      3   2   1     5.624911112062   117.78328430   180.00274693
 C      3   2   1     1.459844007189   117.78378890   179.99714389
 C      4   3   2     1.364157325423     0.02076676   269.89537583
 C      5   3   2     1.398397359499   119.57566102   180.00203538
 C      5   3   2     1.398395545351   119.57408595     0.00000000
 C      7   5   3     1.386181131559   119.58150275   179.99669279
 C      8   5   3     1.386182946361   119.58137506   180.00328856
 H      7   5   3     1.089614140116   118.95858364     0.00000000
 H      8   5   3     1.089615559937   118.95819850     0.00000000
 H      9   7   5     1.093011283056   119.80872448   179.99807549
 H     10   8   5     1.093011560577   119.80895791   180.00170935
 H      4   3   2     1.009462045054   120.97904178   180.30078088
 H      4   3   2     1.009462411517   120.97931401   359.69525703
 O      4   3   2     2.772045941209   100.35292799   269.11832595
 H     17   4   3     0.966899742130   120.89480590   358.31879802
 H     17   4   3     0.966918203384    18.45578141   341.91653020

---------------------------
INTERNAL COORDINATES (A.U.)
---------------------------
 O      0   0   0     0.000000000000     0.00000000     0.00000000
 O      1   0   0     4.094053185886     0.00000000     0.00000000
 N      2   1   0     2.313716318079    27.78249117     0.00000000
 N      3   2   1    10.629541529448   117.78328430   180.00274693
 C      3   2   1     2.758705371833   117.78378890   179.99714389
 C      4   3   2     2.577883748632     0.02076676   269.89537583
 C      5   3   2     2.642588035852   119.57566102   180.00203538
 C      5   3   2     2.642584607608   119.57408595     0.00000000
 C      7   5   3     2.619502710655   119.58150275   179.99669279
 C      8   5   3     2.619506140135   119.58137506   180.00328856
 H      7   5   3     2.059072316468   118.95858364     0.00000000
 H      8   5   3     2.059074999541   118.95819850     0.00000000
 H      9   7   5     2.065491986262   119.80872448   179.99807549
 H     10   8   5     2.065492510700   119.80895791   180.00170935
 H      4   3   2     1.907606807740   120.97904178   180.30078088
 H      4   3   2     1.907607500254   120.97931401   359.69525703
 O      4   3   2     5.238407659532   100.35292799   269.11832595
 H     17   4   3     1.827175711586   120.89480590   358.31879802
 H     17   4   3     1.827210598300    18.45578141   341.91653020

---------------------
BASIS SET INFORMATION
---------------------
There are 4 groups of distinct atoms

 Group   1 Type O   : 7s4p1d contracted to 3s2p1d pattern {511/31/1}
 Group   2 Type N   : 7s4p1d contracted to 3s2p1d pattern {511/31/1}
 Group   3 Type C   : 7s4p1d contracted to 3s2p1d pattern {511/31/1}
 Group   4 Type H   : 4s1p contracted to 2s1p pattern {31/1}

Atom   0O    basis set group =>   1
Atom   1O    basis set group =>   1
Atom   2N    basis set group =>   2
Atom   3N    basis set group =>   2
Atom   4C    basis set group =>   3
Atom   5C    basis set group =>   3
Atom   6C    basis set group =>   3
Atom   7C    basis set group =>   3
Atom   8C    basis set group =>   3
Atom   9C    basis set group =>   3
Atom  10H    basis set group =>   4
Atom  11H    basis set group =>   4
Atom  12H    basis set group =>   4
Atom  13H    basis set group =>   4
Atom  14H    basis set group =>   4
Atom  15H    basis set group =>   4
Atom  16O    basis set group =>   1
Atom  17H    basis set group =>   4
Atom  18H    basis set group =>   4
---------------------------------
AUXILIARY/J BASIS SET INFORMATION
---------------------------------
There are 4 groups of distinct atoms

 Group   1 Type O   : 12s5p4d2f1g contracted to 6s4p3d1f1g pattern {711111/2111/211/2/1}
 Group   2 Type N   : 12s5p4d2f1g contracted to 6s4p3d1f1g pattern {711111/2111/211/2/1}
 Group   3 Type C   : 12s5p4d2f1g contracted to 6s4p3d1f1g pattern {711111/2111/211/2/1}
 Group   4 Type H   : 5s2p1d contracted to 3s1p1d pattern {311/2/1}

Atom   0O    basis set group =>   1
Atom   1O    basis set group =>   1
Atom   2N    basis set group =>   2
Atom   3N    basis set group =>   2
Atom   4C    basis set group =>   3
Atom   5C    basis set group =>   3
Atom   6C    basis set group =>   3
Atom   7C    basis set group =>   3
Atom   8C    basis set group =>   3
Atom   9C    basis set group =>   3
Atom  10H    basis set group =>   4
Atom  11H    basis set group =>   4
Atom  12H    basis set group =>   4
Atom  13H    basis set group =>   4
Atom  14H    basis set group =>   4
Atom  15H    basis set group =>   4
Atom  16O    basis set group =>   1
Atom  17H    basis set group =>   4
Atom  18H    basis set group =>   4
--------------------------------------------------------------------------
By default, for Open MPI 4.0 and later, infiniband ports on a device
are not used by default.  The intent is to use UCX for these devices.
You can override this policy by setting the btl_openib_allow_ib MCA parameter
to true.

  Local host:              psid10
  Local adapter:           mlx4_0
  Local port:              1

--------------------------------------------------------------------------
--------------------------------------------------------------------------
WARNING: There was an error initializing an OpenFabrics device.

  Local host:   psid10
  Local device: mlx4_0
--------------------------------------------------------------------------


           ************************************************************
           *        Program running with 28 parallel MPI-processes    *
           *              working on a common directory               *
           ************************************************************
------------------------------------------------------------------------------
                             ORCA STARTUP CALCULATIONS
                           -- RI-GTO INTEGRALS CHOSEN --
------------------------------------------------------------------------------
------------------------------------------------------------------------------
                   ___                                                        
                  /   \      - P O W E R E D   B Y -                         
                 /     \                                                     
                 |  |  |   _    _      __       _____    __    __             
                 |  |  |  | |  | |    /  \     |  _  \  |  |  /  |          
                  \  \/   | |  | |   /    \    | | | |  |  | /  /          
                 / \  \   | |__| |  /  /\  \   | |_| |  |  |/  /          
                |  |  |   |  __  | /  /__\  \  |    /   |      \           
                |  |  |   | |  | | |   __   |  |    \   |  |\   \          
                \     /   | |  | | |  |  |  |  | |\  \  |  | \   \       
                 \___/    |_|  |_| |__|  |__|  |_| \__\ |__|  \__/        
                                                                              
                      - O R C A' S   B I G   F R I E N D -                    
                                      &                                       
                       - I N T E G R A L  F E E D E R -                       
                                                                              
 v1 FN, 2020, v2 2021, v3 2022-2024                                           
------------------------------------------------------------------------------


----------------------
SHARK INTEGRAL PACKAGE
----------------------

Number of atoms                             ...     19
Number of basis functions                   ...    194
Number of shells                            ...     90
Maximum angular momentum                    ...      2
Integral batch strategy                     ... SHARK/LIBINT Hybrid
RI-J (if used) integral strategy            ... SPLIT-RIJ (Revised 2003 algorithm where possible)
Printlevel                                  ...      1
Contraction scheme used                     ... SEGMENTED contraction
Prescreening option                         ... SCHWARTZ
   Thresh                                   ... 2.500e-11
   Tcut                                     ... 2.500e-12
   Tpresel                                  ... 2.500e-12 
Coulomb Range Separation                    ... NOT USED
Exchange Range Separation                   ... NOT USED
Multipole approximations                    ... NOT USED
Finite Nucleus Model                        ... NOT USED
CABS basis                                  ... NOT available
Auxiliary Coulomb fitting basis             ... AVAILABLE
   # of basis functions in Aux-J            ...    627
   # of shells in Aux-J                     ...    205
   Maximum angular momentum in Aux-J        ...      4
Auxiliary J/K fitting basis                 ... NOT available
Auxiliary Correlation fitting basis         ... NOT available
Auxiliary 'external' fitting basis          ... NOT available

Checking pre-screening integrals            ... done (  0.0 sec) Dimension = 90
Check shell pair data                       ... done (  0.0 sec)
Shell pair information
Shell pair cut-off parameter TPreSel        ...   2.5e-12
Total number of shell pairs                 ...      4095
Shell pairs after pre-screening             ...      3545
Total number of primitive shell pairs       ...     15045
Primitive shell pairs kept                  ...      9091
          la=0 lb=0:   1074 shell pairs
          la=1 lb=0:   1287 shell pairs
          la=1 lb=1:    410 shell pairs
          la=2 lb=0:    447 shell pairs
          la=2 lb=1:    274 shell pairs
          la=2 lb=2:     53 shell pairs

Calculating one electron integrals          ... done (  0.0 sec)
Calculating RI/J V-Matrix + Cholesky decomp.... done (  0.0 sec)
Calculating Nuclear repulsion               ... done (  0.0 sec) ENN=    589.045353177406 Eh

Diagonalization of the overlap matrix:
Smallest eigenvalue                        ... 2.571e-04
Time for diagonalization                   ...    0.004 sec
Threshold for overlap eigenvalues          ... 1.000e-07
Number of eigenvalues below threshold      ... 0
Time for construction of square roots      ...    0.003 sec
Total time needed                          ...    0.013 sec

-------------------
DFT GRID GENERATION
-------------------

General Integration Accuracy     IntAcc      ... 4.388
Radial Grid Type                 RadialGrid  ... OptM3 with GC (2021)
Angular Grid (max. ang.)         AngularGrid ... 4 (Lebedev-302)
Angular grid pruning method      GridPruning ... 4 (adaptive)
Weight generation scheme         WeightScheme... mBecke (2022)
Basis function cutoff            BFCut       ... 1.0000e-11
Integration weight cutoff        WCut        ... 1.0000e-14
Partially contracted basis set               ... off
Rotationally invariant grid construction     ... off
Angular grids for H and He will be reduced by one unit

Total number of grid points                  ...    92010
Total number of batches                      ...     1449
Average number of points per batch           ...       63
Average number of grid points per atom       ...     4843

--------------------
COSX GRID GENERATION
--------------------

GRIDX 1
-------
General Integration Accuracy     IntAcc      ... 3.816
Radial Grid Type                 RadialGrid  ... OptM3 with GC (2021)
Angular Grid (max. ang.)         AngularGrid ... 1 (Lebedev-50)
Angular grid pruning method      GridPruning ... 4 (adaptive)
Weight generation scheme         WeightScheme... mBecke (2022)
Basis function cutoff            BFCut       ... 1.0000e-11
Integration weight cutoff        WCut        ... 1.0000e-14
Partially contracted basis set               ... on
Rotationally invariant grid construction     ... off
Angular grids for H and He will be reduced by one unit

Total number of grid points                  ...    11743
Total number of batches                      ...      102
Average number of points per batch           ...      115
Average number of grid points per atom       ...      618
UseSFitting                                  ... on

GRIDX 2
-------
General Integration Accuracy     IntAcc      ... 4.020
Radial Grid Type                 RadialGrid  ... OptM3 with GC (2021)
Angular Grid (max. ang.)         AngularGrid ... 2 (Lebedev-110)
Angular grid pruning method      GridPruning ... 4 (adaptive)
Weight generation scheme         WeightScheme... mBecke (2022)
Basis function cutoff            BFCut       ... 1.0000e-11
Integration weight cutoff        WCut        ... 1.0000e-14
Partially contracted basis set               ... on
Rotationally invariant grid construction     ... off
Angular grids for H and He will be reduced by one unit

Total number of grid points                  ...    25825
Total number of batches                      ...      210
Average number of points per batch           ...      122
Average number of grid points per atom       ...     1359
UseSFitting                                  ... on

GRIDX 3
-------
General Integration Accuracy     IntAcc      ... 4.338
Radial Grid Type                 RadialGrid  ... OptM3 with GC (2021)
Angular Grid (max. ang.)         AngularGrid ... 3 (Lebedev-194)
Angular grid pruning method      GridPruning ... 4 (adaptive)
Weight generation scheme         WeightScheme... mBecke (2022)
Basis function cutoff            BFCut       ... 1.0000e-11
Integration weight cutoff        WCut        ... 1.0000e-14
Partially contracted basis set               ... on
Rotationally invariant grid construction     ... off
Angular grids for H and He will be reduced by one unit

Total number of grid points                  ...    56870
Total number of batches                      ...      451
Average number of points per batch           ...      126
Average number of grid points per atom       ...     2993
UseSFitting                                  ... on
Initializing property integral containers    ... done (  0.0 sec)

SHARK setup successfully completed in   0.9 seconds

Maximum memory used throughout the entire STARTUP-calculation: 23.5 MB
[psid10:191920] 27 more processes have sent help message help-mpi-btl-openib.txt / ib port not selected
[psid10:191920] Set MCA parameter "orte_base_help_aggregate" to 0 to see all help / error messages
[psid10:191920] 27 more processes have sent help message help-mpi-btl-openib.txt / error in device init
--------------------------------------------------------------------------
By default, for Open MPI 4.0 and later, infiniband ports on a device
are not used by default.  The intent is to use UCX for these devices.
You can override this policy by setting the btl_openib_allow_ib MCA parameter
to true.

  Local host:              psid10
  Local adapter:           mlx4_0
  Local port:              1

--------------------------------------------------------------------------
--------------------------------------------------------------------------
WARNING: There was an error initializing an OpenFabrics device.

  Local host:   psid10
  Local device: mlx4_0
--------------------------------------------------------------------------


           ************************************************************
           *        Program running with 28 parallel MPI-processes    *
           *              working on a common directory               *
           ************************************************************
-------------------------------------------------------------------------------
                                 ORCA GUESS
                   Start orbitals & Density for SCF / CASSCF
-------------------------------------------------------------------------------

------------
SCF SETTINGS
------------
Hamiltonian:
 Density Functional     Method          .... DFT(GTOs)
 Exchange Functional    Exchange        .... B88
   X-Alpha parameter    XAlpha          ....  0.666667
   Becke's b parameter  XBeta           ....  0.004200
 Correlation Functional Correlation     .... LYP
 LDA part of GGA corr.  LDAOpt          .... VWN-5
 Gradients option       PostSCFGGA      .... off
 Hybrid DFT is turned on
   Fraction HF Exchange ScalHFX         ....  0.200000
   Scaling of DF-GGA-X  ScalDFX         ....  0.720000
   Scaling of DF-GGA-C  ScalDFC         ....  0.810000
   Scaling of DF-LDA-C  ScalLDAC        ....  1.000000
   Perturbative correction              ....  0.000000
   NL short-range parameter             ....  4.800000
 RI-approximation to the Coulomb term is turned on
   Number of AuxJ basis functions       .... 627
   RIJ-COSX (HFX calculated with COS-X)).... on


General Settings:
 Integral files         IntName         .... 4nitroaniline_water_2_OPT
 Hartree-Fock type      HFTyp           .... RHF
 Total Charge           Charge          ....    0
 Multiplicity           Mult            ....    1
 Number of Electrons    NEL             ....   82
 Basis Dimension        Dim             ....  194
 Nuclear Repulsion      ENuc            ....    589.0453531774 Eh

Convergence Acceleration:
 AO-DIIS                CNVDIIS         .... on
   Start iteration      DIISMaxIt       ....    12
   Startup error        DIISStart       ....  0.200000
   # of expansion vecs  DIISMaxEq       ....     5
   Bias factor          DIISBfac        ....   1.050
   Max. coefficient     DIISMaxC        ....  10.000
 MO-DIIS                CNVKDIIS        .... off
 Trust-Rad. Augm. Hess. CNVTRAH         .... auto
   Auto Start mean grad. ratio tolernc. ....  1.125000
   Auto Start start iteration           ....    50
   Auto Start num. interpolation iter.  ....    10
   Max. Number of Micro iterations      ....    24
   Max. Number of Macro iterations      .... Maxiter - #DIIS iter
   Number of Davidson start vectors     ....     2
   Converg. threshold    (grad. norm)   ....   1.000e-05
   Grad. Scal. Fac. for Micro threshold ....   0.100
   Minimum threshold for Micro iter.    ....   1.000e-02
   NR start threshold (gradient norm)   ....   1.000e-04
   Initial trust radius                 ....   0.400
   Minimum AH scaling param. (alpha)    ....   1.000
   Maximum AH scaling param. (alpha)    .... 1000.000
   Quad. conv. algorithm                .... NR
   White noise on init. David. guess    .... on
   Maximum white noise                  ....   0.010
   Pseudo random numbers                .... off
   Inactive MOs                         .... canonical
   Orbital update algorithm             .... Taylor
   Preconditioner                       .... Diag
   Full preconditioner red. dimension   ....   250
 SOSCF                  CNVSOSCF        .... on
   Start iteration      SOSCFMaxIt      ....   150
   Startup grad/error   SOSCFStart      ....  0.003300
   Hessian update       SOSCFHessUp     .... L-BFGS
 Level Shifting         CNVShift        .... on
   Level shift para.    LevelShift      ....    0.2500
   Turn off err/grad.   ShiftErr        ....    0.0010
 Zerner damping         CNVZerner       .... off
 Static damping         CNVDamp         .... on
   Fraction old density DampFac         ....    0.7000
   Max. Damping (<1)    DampMax         ....    0.9800
   Min. Damping (>=0)   DampMin         ....    0.0000
   Turn off err/grad.   DampErr         ....    0.1000

SCF Procedure:
 Maximum # iterations   MaxIter         ....   125
 SCF integral mode      SCFMode         .... Direct
   Integral package                     .... SHARK and LIBINT hybrid scheme
 Reset frequency        DirectResetFreq ....    20
 Integral Threshold     Thresh          ....  2.500e-11 Eh
 Primitive CutOff       TCut            ....  2.500e-12 Eh

Convergence Tolerance:
 Convergence Check Mode ConvCheckMode   .... Total+1el-Energy
 Convergence forced     ConvForced      .... 0
 Energy Change          TolE            ....  1.000e-08 Eh
 1-El. energy change                    ....  1.000e-05 Eh
 Orbital Gradient       TolG            ....  1.000e-05
 Orbital Rotation angle TolX            ....  1.000e-05
 DIIS Error             TolErr          ....  5.000e-07

------------------------------
INITIAL GUESS: MODEL POTENTIAL
------------------------------
Loading Hartree-Fock densities                     ... done
Calculating cut-offs                               ... done
Initializing the effective Hamiltonian             ... done
Setting up the integral package (SHARK)            ... done
Starting the Coulomb interaction                   ... done (   0.0 sec)
Making the grid                                    ... done (   0.1 sec)
Mapping shells                                     ... done
Starting the XC term evaluation                    ... done (   0.0 sec)
  promolecular density results
     # of electrons  =     81.999955526
     EX              =    -70.976518698
     EC              =     -2.835547782
     EX+EC           =    -73.812066481
Transforming the Hamiltonian                       ... done (   0.0 sec)
Diagonalizing the Hamiltonian                      ... done (   0.0 sec)
Back transforming the eigenvectors                 ... done (   0.0 sec)
Now organizing SCF variables                       ... done
                      ------------------
                      INITIAL GUESS DONE (   0.2 sec)
                      ------------------
             **** ENERGY FILE WAS UPDATED (4nitroaniline_water_2_OPT.en.tmp) ****
Finished Guess after   0.9 sec
Maximum memory used throughout the entire GUESS-calculation: 13.5 MB
[psid10:192018] 27 more processes have sent help message help-mpi-btl-openib.txt / ib port not selected
[psid10:192018] Set MCA parameter "orte_base_help_aggregate" to 0 to see all help / error messages
[psid10:192018] 27 more processes have sent help message help-mpi-btl-openib.txt / error in device init
--------------------------------------------------------------------------
By default, for Open MPI 4.0 and later, infiniband ports on a device
are not used by default.  The intent is to use UCX for these devices.
You can override this policy by setting the btl_openib_allow_ib MCA parameter
to true.

  Local host:              psid10
  Local adapter:           mlx4_0
  Local port:              1

--------------------------------------------------------------------------
--------------------------------------------------------------------------
WARNING: There was an error initializing an OpenFabrics device.

  Local host:   psid10
  Local device: mlx4_0
--------------------------------------------------------------------------


           ************************************************************
           *        Program running with 28 parallel MPI-processes    *
           *              working on a common directory               *
           ************************************************************

-------------------------------------------------------------------------------------------
                                      ORCA LEAN-SCF
                              memory conserving SCF solver
-------------------------------------------------------------------------------------------

----------------------------------------D-I-I-S--------------------------------------------
Iteration    Energy (Eh)           Delta-E    RMSDP     MaxDP     DIISErr   Damp  Time(sec)
-------------------------------------------------------------------------------------------
               ***  Starting incremental Fock matrix formation  ***
    1    -567.4389190884198797     0.00e+00  4.06e-03  9.12e-02  3.11e-01  0.700   0.4
    2    -567.6172000442336412    -1.78e-01  2.53e-03  5.03e-02  1.32e-01  0.700   0.3
                               ***Turning on AO-DIIS***
    3    -567.6800293863439038    -6.28e-02  1.11e-03  1.66e-02  3.95e-02  0.700   0.3
    4    -567.7200872130765674    -4.01e-02  1.96e-03  3.00e-02  1.84e-02  0.000   0.3
    5    -567.8098309762224289    -8.97e-02  3.42e-04  8.76e-03  5.77e-03  0.000   0.3
                              *** Initializing SOSCF ***
---------------------------------------S-O-S-C-F--------------------------------------
Iteration    Energy (Eh)           Delta-E    RMSDP     MaxDP     MaxGrad    Time(sec)
--------------------------------------------------------------------------------------
    6    -567.8102841145932871    -4.53e-04  1.14e-04  3.59e-03  1.50e-03     0.4
               *** Restarting incremental Fock matrix formation ***
    7    -567.8102489399843762     3.52e-05  7.41e-05  1.70e-03  3.57e-04     0.4
    8    -567.8102488676199755     7.24e-08  3.23e-05  8.38e-04  4.42e-04     0.4
    9    -567.8102532341165443    -4.37e-06  1.77e-05  2.69e-04  9.33e-05     0.4
   10    -567.8102532287425674     5.37e-09  8.39e-06  2.11e-04  1.42e-04     0.4
                 **** Energy Check signals convergence ****

               *****************************************************
               *                     SUCCESS                       *
               *           SCF CONVERGED AFTER  10 CYCLES          *
               *****************************************************

Recomputing exchange energy using gridx3       ... done (    0.343 sec)
Old exchange energy                            :    -14.337341313 Eh
New exchange energy                            :    -14.337343614 Eh
Exchange energy change after final integration :     -0.000002301 Eh
Total energy after final integration           :   -567.810255529 Eh
             **** ENERGY FILE WAS UPDATED (4nitroaniline_water_2_OPT.en.tmp) ****

----------------
TOTAL SCF ENERGY
----------------

Total Energy       :       -567.81025552948802 Eh          -15450.90256 eV

Components:
Nuclear Repulsion  :        589.04535317740556 Eh           16028.73895 eV
Electronic Energy  :      -1156.85560640614813 Eh          -31479.64144 eV
One Electron Energy:      -1941.44447245134188 Eh          -52829.38989 eV
Two Electron Energy:        784.58886604519375 Eh           21349.74845 eV

Virial components:
Potential Energy   :      -1130.98654022785104 Eh          -30775.70837 eV
Kinetic Energy     :        563.17628469836313 Eh           15324.80580 eV
Virial Ratio       :          2.00822827764064

DFT components:
N(Alpha)           :       40.999995707291 electrons
N(Beta)            :       40.999995707291 electrons
N(Total)           :       81.999991414581 electrons
E(X)               :      -57.090572868957 Eh       
E(C)               :       -3.341703692751 Eh       
E(XC)              :      -60.432276561709 Eh       

---------------
SCF CONVERGENCE
---------------

  Last Energy change         ...   -5.3740e-09  Tolerance :   1.0000e-08
  Last MAX-Density change    ...    2.1060e-04  Tolerance :   1.0000e-07
  Last RMS-Density change    ...    8.3862e-06  Tolerance :   5.0000e-09
  Last DIIS Error            ...    1.4990e-03  Tolerance :   5.0000e-07
  Last Orbital Gradient      ...    1.4208e-04  Tolerance :   1.0000e-05
  Last Orbital Rotation      ...    1.1413e-04  Tolerance :   1.0000e-05


----------------
ORBITAL ENERGIES
----------------

  NO   OCC          E(Eh)            E(eV) 
   0   2.0000     -19.150007      -521.0982 
   1   2.0000     -19.149860      -521.0942 
   2   2.0000     -19.107741      -519.9481 
   3   2.0000     -14.548321      -395.8799 
   4   2.0000     -14.378784      -391.2666 
   5   2.0000     -10.269654      -279.4515 
   6   2.0000     -10.238237      -278.5966 
   7   2.0000     -10.220315      -278.1089 
   8   2.0000     -10.220087      -278.1027 
   9   2.0000     -10.214751      -277.9575 
  10   2.0000     -10.214360      -277.9469 
  11   2.0000      -1.209586       -32.9145 
  12   2.0000      -1.034788       -28.1580 
  13   2.0000      -0.975381       -26.5415 
  14   2.0000      -0.953297       -25.9405 
  15   2.0000      -0.874203       -23.7883 
  16   2.0000      -0.788849       -21.4657 
  17   2.0000      -0.770041       -20.9539 
  18   2.0000      -0.690625       -18.7929 
  19   2.0000      -0.644928       -17.5494 
  20   2.0000      -0.599120       -16.3029 
  21   2.0000      -0.562883       -15.3168 
  22   2.0000      -0.558545       -15.1988 
  23   2.0000      -0.536261       -14.5924 
  24   2.0000      -0.530192       -14.4273 
  25   2.0000      -0.511136       -13.9087 
  26   2.0000      -0.498119       -13.5545 
  27   2.0000      -0.466640       -12.6979 
  28   2.0000      -0.463658       -12.6168 
  29   2.0000      -0.450395       -12.2559 
  30   2.0000      -0.429424       -11.6852 
  31   2.0000      -0.422610       -11.4998 
  32   2.0000      -0.373658       -10.1678 
  33   2.0000      -0.365631        -9.9493 
  34   2.0000      -0.343463        -9.3461 
  35   2.0000      -0.302522        -8.2320 
  36   2.0000      -0.301308        -8.1990 
  37   2.0000      -0.286564        -7.7978 
  38   2.0000      -0.283633        -7.7180 
  39   2.0000      -0.283097        -7.7035 
  40   2.0000      -0.241498        -6.5715 
  41   0.0000      -0.079196        -2.1550 
  42   0.0000      -0.034519        -0.9393 
  43   0.0000       0.008451         0.2300 
  44   0.0000       0.026916         0.7324 
  45   0.0000       0.061508         1.6737 
  46   0.0000       0.062991         1.7141 
  47   0.0000       0.073478         1.9994 
  48   0.0000       0.113257         3.0819 
  49   0.0000       0.126997         3.4558 
  50   0.0000       0.136553         3.7158 
  51   0.0000       0.149374         4.0647 
*Only the first 10 virtual orbitals were printed.

                    ********************************
                    * MULLIKEN POPULATION ANALYSIS *
                    ********************************

-----------------------
MULLIKEN ATOMIC CHARGES
-----------------------
   0 O :   -0.253641
   1 O :   -0.253318
   2 N :    0.236363
   3 N :   -0.062773
   4 C :    0.165683
   5 C :    0.061128
   6 C :   -0.017482
   7 C :   -0.017921
   8 C :   -0.019863
   9 C :   -0.014767
  10 H :    0.007325
  11 H :    0.007445
  12 H :   -0.025926
  13 H :   -0.025006
  14 H :    0.130563
  15 H :    0.130923
  16 O :   -0.308053
  17 H :    0.149316
  18 H :    0.110005
Sum of atomic charges:    0.0000000

--------------------------------
MULLIKEN REDUCED ORBITAL CHARGES
--------------------------------
  0 O s       :     3.857842  s :     3.857842
      pz      :     1.432500  p :     4.373844
      px      :     1.679997
      py      :     1.261347
      dz2     :     0.002680  d :     0.021954
      dxz     :     0.001599
      dyz     :     0.005012
      dx2y2   :     0.005661
      dxy     :     0.007001

  1 O s       :     3.857863  s :     3.857863
      pz      :     1.432230  p :     4.373497
      px      :     1.679930
      py      :     1.261338
      dz2     :     0.002680  d :     0.021958
      dxz     :     0.001600
      dyz     :     0.005013
      dx2y2   :     0.005662
      dxy     :     0.007003

  2 N s       :     3.292139  s :     3.292139
      pz      :     1.182727  p :     3.356210
      px      :     1.136632
      py      :     1.036851
      dz2     :     0.004718  d :     0.115288
      dxz     :     0.007619
      dyz     :     0.026989
      dx2y2   :     0.042692
      dxy     :     0.033271

  3 N s       :     3.300941  s :     3.300941
      pz      :     1.701512  p :     3.746226
      px      :     1.040986
      py      :     1.003727
      dz2     :     0.001935  d :     0.015606
      dxz     :     0.002728
      dyz     :     0.000052
      dx2y2   :     0.004465
      dxy     :     0.006426

  4 C s       :     2.998758  s :     2.998758
      pz      :     1.114443  p :     2.787710
      px      :     0.812224
      py      :     0.861044
      dz2     :     0.004126  d :     0.047849
      dxz     :     0.004796
      dyz     :     0.006770
      dx2y2   :     0.020273
      dxy     :     0.011884

  5 C s       :     2.989668  s :     2.989668
      pz      :     0.936579  p :     2.886340
      px      :     0.886779
      py      :     1.062981
      dz2     :     0.004325  d :     0.062864
      dxz     :     0.016976
      dyz     :     0.006633
      dx2y2   :     0.019604
      dxy     :     0.015326

  6 C s       :     3.278715  s :     3.278715
      pz      :     0.924626  p :     2.703395
      px      :     0.877471
      py      :     0.901298
      dz2     :     0.002638  d :     0.035372
      dxz     :     0.006921
      dyz     :     0.003921
      dx2y2   :     0.009528
      dxy     :     0.012364

  7 C s       :     3.278628  s :     3.278628
      pz      :     0.924921  p :     2.703924
      px      :     0.877819
      py      :     0.901184
      dz2     :     0.002638  d :     0.035370
      dxz     :     0.006912
      dyz     :     0.003921
      dx2y2   :     0.009522
      dxy     :     0.012377

  8 C s       :     3.229042  s :     3.229042
      pz      :     1.066694  p :     2.758584
      px      :     0.865045
      py      :     0.826845
      dz2     :     0.002631  d :     0.032237
      dxz     :     0.004894
      dyz     :     0.002814
      dx2y2   :     0.009328
      dxy     :     0.012571

  9 C s       :     3.228447  s :     3.228447
      pz      :     1.062057  p :     2.754086
      px      :     0.863951
      py      :     0.828078
      dz2     :     0.002635  d :     0.032234
      dxz     :     0.004888
      dyz     :     0.002817
      dx2y2   :     0.009342
      dxy     :     0.012553

 10 H s       :     0.969001  s :     0.969001
      pz      :     0.004113  p :     0.023674
      px      :     0.007592
      py      :     0.011969

 11 H s       :     0.968886  s :     0.968886
      pz      :     0.004106  p :     0.023669
      px      :     0.007588
      py      :     0.011975

 12 H s       :     1.002820  s :     1.002820
      pz      :     0.005144  p :     0.023106
      px      :     0.005855
      py      :     0.012108

 13 H s       :     1.001886  s :     1.001886
      pz      :     0.005140  p :     0.023120
      px      :     0.005871
      py      :     0.012110

 14 H s       :     0.824139  s :     0.824139
      pz      :     0.012879  p :     0.045298
      px      :     0.012022
      py      :     0.020397

 15 H s       :     0.824188  s :     0.824188
      pz      :     0.012498  p :     0.044889
      px      :     0.011953
      py      :     0.020438

 16 O s       :     3.662905  s :     3.662905
      pz      :     1.190768  p :     4.634504
      px      :     1.496798
      py      :     1.946938
      dz2     :     0.000646  d :     0.010645
      dxz     :     0.006336
      dyz     :     0.000128
      dx2y2   :     0.002398
      dxy     :     0.001136

 17 H s       :     0.780727  s :     0.780727
      pz      :     0.025404  p :     0.069958
      px      :     0.025298
      py      :     0.019255

 18 H s       :     0.813642  s :     0.813642
      pz      :     0.036627  p :     0.076353
      px      :     0.019878
      py      :     0.019848



                     *******************************
                     * LOEWDIN POPULATION ANALYSIS *
                     *******************************

----------------------
LOEWDIN ATOMIC CHARGES
----------------------
   0 O :   -0.219013
   1 O :   -0.218699
   2 N :    0.277471
   3 N :    0.028381
   4 C :   -0.057073
   5 C :    0.030779
   6 C :    0.011990
   7 C :    0.012095
   8 C :   -0.061863
   9 C :   -0.058813
  10 H :    0.042620
  11 H :    0.042693
  12 H :    0.029007
  13 H :    0.029730
  14 H :    0.082988
  15 H :    0.084305
  16 O :   -0.163576
  17 H :    0.074731
  18 H :    0.032248

-------------------------------
LOEWDIN REDUCED ORBITAL CHARGES
-------------------------------
  0 O s       :     3.621345  s :     3.621345
      pz      :     1.441571  p :     4.555521
      px      :     1.716697
      py      :     1.397252
      dz2     :     0.006451  d :     0.042146
      dxz     :     0.002080
      dyz     :     0.007080
      dx2y2   :     0.010621
      dxy     :     0.015915

  1 O s       :     3.621333  s :     3.621333
      pz      :     1.441315  p :     4.555214
      px      :     1.716645
      py      :     1.397254
      dz2     :     0.006451  d :     0.042152
      dxz     :     0.002080
      dyz     :     0.007082
      dx2y2   :     0.010621
      dxy     :     0.015917

  2 N s       :     3.049422  s :     3.049422
      pz      :     1.129949  p :     3.431298
      px      :     1.177862
      py      :     1.123487
      dz2     :     0.011851  d :     0.241809
      dxz     :     0.012731
      dyz     :     0.047386
      dx2y2   :     0.095259
      dxy     :     0.074582

  3 N s       :     3.017668  s :     3.017668
      pz      :     1.617896  p :     3.911576
      px      :     1.141340
      py      :     1.152340
      dz2     :     0.003287  d :     0.042375
      dxz     :     0.005276
      dyz     :     0.000061
      dx2y2   :     0.013975
      dxy     :     0.019777

  4 C s       :     2.857817  s :     2.857817
      pz      :     1.087257  p :     3.077043
      px      :     0.898488
      py      :     1.091297
      dz2     :     0.010009  d :     0.122213
      dxz     :     0.009573
      dyz     :     0.013808
      dx2y2   :     0.053562
      dxy     :     0.035261

  5 C s       :     2.839488  s :     2.839488
      pz      :     0.918857  p :     2.979721
      px      :     0.961557
      py      :     1.099307
      dz2     :     0.009711  d :     0.150011
      dxz     :     0.035496
      dyz     :     0.013446
      dx2y2   :     0.051213
      dxy     :     0.040145

  6 C s       :     2.862535  s :     2.862535
      pz      :     0.919307  p :     3.033740
      px      :     1.062929
      py      :     1.051504
      dz2     :     0.006344  d :     0.091735
      dxz     :     0.014650
      dyz     :     0.007704
      dx2y2   :     0.028392
      dxy     :     0.034646

  7 C s       :     2.862573  s :     2.862573
      pz      :     0.919160  p :     3.033637
      px      :     1.063055
      py      :     1.051422
      dz2     :     0.006344  d :     0.091695
      dxz     :     0.014590
      dyz     :     0.007703
      dx2y2   :     0.028376
      dxy     :     0.034682

  8 C s       :     2.857635  s :     2.857635
      pz      :     1.046028  p :     3.117902
      px      :     1.051229
      py      :     1.020644
      dz2     :     0.006343  d :     0.086327
      dxz     :     0.010020
      dyz     :     0.005254
      dx2y2   :     0.028413
      dxy     :     0.036297

  9 C s       :     2.857613  s :     2.857613
      pz      :     1.043086  p :     3.114925
      px      :     1.050917
      py      :     1.020921
      dz2     :     0.006347  d :     0.086275
      dxz     :     0.009993
      dyz     :     0.005255
      dx2y2   :     0.028441
      dxy     :     0.036239

 10 H s       :     0.885958  s :     0.885958
      pz      :     0.012604  p :     0.071423
      px      :     0.022965
      py      :     0.035854

 11 H s       :     0.885888  s :     0.885888
      pz      :     0.012597  p :     0.071419
      px      :     0.022956
      py      :     0.035866

 12 H s       :     0.902674  s :     0.902674
      pz      :     0.016004  p :     0.068320
      px      :     0.017238
      py      :     0.035078

 13 H s       :     0.901997  s :     0.901997
      pz      :     0.015908  p :     0.068273
      px      :     0.017266
      py      :     0.035099

 14 H s       :     0.791679  s :     0.791679
      pz      :     0.042315  p :     0.125333
      px      :     0.029327
      py      :     0.053691

 15 H s       :     0.790874  s :     0.790874
      pz      :     0.041794  p :     0.124821
      px      :     0.029229
      py      :     0.053798

 16 O s       :     3.428911  s :     3.428911
      pz      :     1.266973  p :     4.715239
      px      :     1.565332
      py      :     1.882934
      dz2     :     0.002516  d :     0.019426
      dxz     :     0.012910
      dyz     :     0.000194
      dx2y2   :     0.003410
      dxy     :     0.000397

 17 H s       :     0.749617  s :     0.749617
      pz      :     0.051043  p :     0.175652
      px      :     0.071508
      py      :     0.053100

 18 H s       :     0.760925  s :     0.760925
      pz      :     0.098127  p :     0.206827
      px      :     0.053742
      py      :     0.054958



                      *****************************
                      * MAYER POPULATION ANALYSIS *
                      *****************************

  NA   - Mulliken gross atomic population
  ZA   - Total nuclear charge
  QA   - Mulliken gross atomic charge
  VA   - Mayer's total valence
  BVA  - Mayer's bonded valence
  FA   - Mayer's free valence

  ATOM       NA         ZA         QA         VA         BVA        FA
  0 O      8.2536     8.0000    -0.2536     1.9515     1.9515    -0.0000
  1 O      8.2533     8.0000    -0.2533     1.9519     1.9519     0.0000
  2 N      6.7636     7.0000     0.2364     3.9840     3.9840    -0.0000
  3 N      7.0628     7.0000    -0.0628     3.2593     3.2593    -0.0000
  4 C      5.8343     6.0000     0.1657     3.7529     3.7529    -0.0000
  5 C      5.9389     6.0000     0.0611     4.0117     4.0117    -0.0000
  6 C      6.0175     6.0000    -0.0175     3.8533     3.8533     0.0000
  7 C      6.0179     6.0000    -0.0179     3.8536     3.8536     0.0000
  8 C      6.0199     6.0000    -0.0199     3.7487     3.7487    -0.0000
  9 C      6.0148     6.0000    -0.0148     3.7495     3.7495     0.0000
 10 H      0.9927     1.0000     0.0073     1.0188     1.0188     0.0000
 11 H      0.9926     1.0000     0.0074     1.0188     1.0188     0.0000
 12 H      1.0259     1.0000    -0.0259     0.9897     0.9897    -0.0000
 13 H      1.0250     1.0000    -0.0250     0.9899     0.9899    -0.0000
 14 H      0.8694     1.0000     0.1306     1.0017     1.0017     0.0000
 15 H      0.8691     1.0000     0.1309     1.0034     1.0034     0.0000
 16 O      8.3081     8.0000    -0.3081     2.0179     2.0179     0.0000
 17 H      0.8507     1.0000     0.1493     1.0104     1.0104    -0.0000
 18 H      0.8900     1.0000     0.1100     1.0915     1.0915    -0.0000

  Mayer bond orders larger than 0.100000
B(  0-O ,  1-O ) :   0.2690 B(  0-O ,  2-N ) :   1.5342 B(  1-O ,  2-N ) :   1.5345 
B(  2-N ,  4-C ) :   0.8859 B(  3-N ,  5-C ) :   1.2286 B(  3-N , 14-H ) :   0.9424 
B(  3-N , 15-H ) :   0.9422 B(  4-C ,  6-C ) :   1.3484 B(  4-C ,  7-C ) :   1.3472 
B(  5-C ,  8-C ) :   1.2901 B(  5-C ,  9-C ) :   1.2918 B(  6-C ,  8-C ) :   1.3851 
B(  6-C , 10-H ) :   0.9804 B(  7-C ,  9-C ) :   1.3864 B(  7-C , 11-H ) :   0.9804 
B(  8-C , 12-H ) :   0.9877 B(  9-C , 13-H ) :   0.9879 B( 16-O , 17-H ) :   1.0016 
B( 16-O , 18-H ) :   0.9834 

-------
TIMINGS
-------

Total SCF time: 0 days 0 hours 0 min 4 sec 

Total time                  ....       4.841 sec
Sum of individual times     ....       4.729 sec  ( 97.7%)

SCF preparation             ....       0.810 sec  ( 16.7%)
Fock matrix formation       ....       3.246 sec  ( 67.1%)
  Startup                   ....       0.070 sec  (  2.2% of F)
  Split-RI-J                ....       0.303 sec  (  9.3% of F)
  Chain of spheres X        ....       1.774 sec  ( 54.7% of F)
  XC integration            ....       0.922 sec  ( 28.4% of F)
    XC Preparation          ....       0.000 sec  (  0.0% of XC)
    Basis function eval.    ....       0.129 sec  ( 14.0% of XC)
    Density eval.           ....       0.059 sec  (  6.4% of XC)
    XC-Functional eval.     ....       0.032 sec  (  3.4% of XC)
    XC-Potential eval.      ....       0.084 sec  (  9.2% of XC)
Diagonalization             ....       0.000 sec  (  0.0%)
Density matrix formation    ....       0.185 sec  (  3.8%)
Total Energy calculation    ....       0.080 sec  (  1.7%)
Population analysis         ....       0.027 sec  (  0.6%)
Orbital Transformation      ....       0.039 sec  (  0.8%)
Orbital Orthonormalization  ....       0.000 sec  (  0.0%)
DIIS solution               ....       0.220 sec  (  4.5%)
SOSCF solution              ....       0.121 sec  (  2.5%)
Finished LeanSCF after   4.9 sec

Maximum memory used throughout the entire LEANSCF-calculation: 20.2 MB
[psid10:192107] 27 more processes have sent help message help-mpi-btl-openib.txt / ib port not selected
[psid10:192107] Set MCA parameter "orte_base_help_aggregate" to 0 to see all help / error messages
[psid10:192107] 27 more processes have sent help message help-mpi-btl-openib.txt / error in device init


-------------------------------------------------------------------------------
                          DFT DISPERSION CORRECTION                            
                                                                               
                              DFTD3 V3.1  Rev 1                                
                          USING Becke-Johnson damping                          
-------------------------------------------------------------------------------
The B3LYP functional is recognized
Active option DFTDOPT                   ...         4   

molecular C6(AA) [au] = 3865.814638 


            DFT-D V3
 parameters
 s6 scaling factor         :     1.0000 
 a1 scaling factor         :     0.3981 
 s8 scaling factor         :     1.9889 
 a2 scaling factor         :     4.4211 
 ad hoc parameters k1-k3   :    16.0000     1.3333    -4.0000 

 Edisp/kcal,au: -20.466982912535  -0.032616209914 
 E6   /kcal   :  -9.698645159 
 E8   /kcal   : -10.768337754 
 % E8         :  52.613215147 

-------------------------   ----------------
Dispersion correction           -0.032616210
-------------------------   ----------------


-------------------------   --------------------
FINAL SINGLE POINT ENERGY      -567.842871739402
-------------------------   --------------------

--------------------------------------------------------------------------
By default, for Open MPI 4.0 and later, infiniband ports on a device
are not used by default.  The intent is to use UCX for these devices.
You can override this policy by setting the btl_openib_allow_ib MCA parameter
to true.

  Local host:              psid10
  Local adapter:           mlx4_0
  Local port:              1

--------------------------------------------------------------------------
--------------------------------------------------------------------------
WARNING: There was an error initializing an OpenFabrics device.

  Local host:   psid10
  Local device: mlx4_0
--------------------------------------------------------------------------


           ************************************************************
           *        Program running with 28 parallel MPI-processes    *
           *              working on a common directory               *
           ************************************************************
------------------------------------------------------------------------------
                         ORCA SCF GRADIENT CALCULATION
------------------------------------------------------------------------------

Nuc. rep. gradient        (SHARK) ... done (  0.0 sec)
HCore & Overlap gradient  (SHARK) ... done (  0.0 sec)
Split-RIJ-J gradient      (SHARK) ... done (  0.1 sec)
COSX-gradient                     ... done (  1.2 sec)
XC gradient                       ... done (  0.3 sec)
Dispersion correction             ... done (  0.0 sec)

-------------------
DISPERSION GRADIENT
-------------------

   1   O   :    0.000479070    0.000175483    0.000000894
   2   O   :    0.000478997   -0.000175529    0.000000825
   3   N   :    0.000595546   -0.000000083    0.000002165
   4   N   :   -0.000589443   -0.000004017    0.000183627
   5   C   :    0.000464584   -0.000000726    0.000019176
   6   C   :   -0.000359793   -0.000005764    0.000225956
   7   C   :    0.000144509    0.000578220    0.000039365
   8   C   :    0.000139728   -0.000579521    0.000036281
   9   C   :   -0.000071947    0.000596869    0.000157932
  10   C   :   -0.000077076   -0.000605121    0.000151502
  11   H   :    0.000095743    0.000346992    0.000003750
  12   H   :    0.000095061   -0.000346891    0.000003287
  13   H   :   -0.000075446    0.000380020    0.000050133
  14   H   :   -0.000080015   -0.000377674    0.000043872
  15   H   :   -0.000294477    0.000104731    0.000097420
  16   H   :   -0.000294786   -0.000110441    0.000098673
  17   O   :   -0.000291228    0.000006110   -0.000526239
  18   H   :   -0.000086373    0.000004603   -0.000315834
  19   H   :   -0.000272657    0.000012739   -0.000272783

Difference to translation invariance:
           :   -0.0000000000    0.0000000000    0.0000000000

Difference to rotation invariance:
           :    0.0000000000   -0.0000000000    0.0000000000

Norm of the Dispersion gradient    ...    0.0021317912
RMS gradient                       ...    0.0002823626
MAX gradient                       ...    0.0006051207

------------------
CARTESIAN GRADIENT
------------------

   1   O   :    0.001067956    0.000643503    0.000014240
   2   O   :    0.001108068   -0.000726384    0.000008967
   3   N   :   -0.003119631    0.000057045   -0.000052954
   4   N   :    0.001988952   -0.000633554   -0.003282280
   5   C   :    0.002191041   -0.000072554    0.000039360
   6   C   :   -0.010346111    0.000314331   -0.004891000
   7   C   :   -0.001374252    0.000547368    0.000322177
   8   C   :   -0.001147909   -0.000539907    0.000272984
   9   C   :    0.002139211    0.001015950    0.000622152
  10   C   :    0.002112687   -0.000944841    0.000381725
  11   H   :    0.000047432   -0.000039656   -0.000064722
  12   H   :    0.000062224    0.000032953   -0.000050546
  13   H   :    0.000025897   -0.000019826   -0.000136277
  14   H   :    0.000029883   -0.000123683   -0.000026068
  15   H   :    0.001436459   -0.000545223   -0.002018371
  16   H   :    0.001281544    0.000462564   -0.000167588
  17   O   :   -0.002119022   -0.000631562    0.006409931
  18   H   :    0.001448378    0.000280160    0.001409779
  19   H   :    0.003167193    0.000923316    0.001208491

Difference to translation invariance:
           :   -0.0000000000   -0.0000000000    0.0000000000

Difference to rotation invariance:
           :   -0.0000630805   -0.0000510883    0.0000299417

Norm of the Cartesian gradient     ...    0.0158233217
RMS gradient                       ...    0.0020958502
MAX gradient                       ...    0.0103461106

-------
TIMINGS
-------

Total SCF gradient time     ....        1.629 sec

Densities                   ....       0.001 sec  (  0.0%)
One electron gradient       ....       0.016 sec  (  1.0%)
RI-J Coulomb gradient       ....       0.134 sec  (  8.2%)
COSX gradient               ....       1.178 sec  ( 72.3%)
XC gradient                 ....       0.251 sec  ( 15.4%)

Maximum memory used throughout the entire SCFGRAD-calculation: 30.5 MB
[psid10:192209] 27 more processes have sent help message help-mpi-btl-openib.txt / ib port not selected
[psid10:192209] Set MCA parameter "orte_base_help_aggregate" to 0 to see all help / error messages
[psid10:192209] 27 more processes have sent help message help-mpi-btl-openib.txt / error in device init
------------------------------------------------------------------------------
                         ORCA GEOMETRY RELAXATION STEP
------------------------------------------------------------------------------

Reading the OPT-File                    .... done
Getting information on internals        .... done
Copying old internal coords+grads       .... done
[...]
Maximum allowed component of the step   ....  0.300
Current trust radius                    ....  0.467
Updating the Hessian (BFGS)             .... done
Forming the augmented Hessian           .... done
Diagonalizing the augmented Hessian     .... done
Last element of RFO vector              ....  0.769005808
Lowest eigenvalues of augmented Hessian:
 -0.000287797  0.000147413  0.000440338  0.001369076  0.003290779
Length of the computed step             ....  0.831257430
Warning: the length of the step is outside the trust region - taking restricted step instead
The input lambda is                     ....    -0.000971
   iter:   5  x=   -0.000518  g= 1517.531915 f(x)=     0.154295
   iter:  10  x=   -0.000569  g=  663.496688 f(x)=     0.000000
The output lambda is                    ....    -0.000569 (10 iterations)
The final length of the internal step   ....  0.466666667
Converting the step to Cartesian space:
 Initial RMS(Int)=    0.0410877090
Transforming coordinates:
 Iter   0:  RMS(Cart)=    0.0459038669 RMS(Int)=    0.0331140282
 Iter   5:  RMS(Cart)=    0.0000003084 RMS(Int)=    0.0000003402
done
Storing new coordinates                 .... done
The predicted energy change is          ....    -0.000151632
Previously predicted energy change      ....    -0.000127558
Actually observed energy change         ....    -0.000123015
Ratio of predicted to observed change   ....     0.964386300
New trust radius                        ....     0.700000000

                                .--------------------.
          ----------------------|Geometry convergence|-------------------------
          Item                value                   Tolerance       Converged
          ---------------------------------------------------------------------
          Energy change      -0.0001230150            0.0000050000      NO
          RMS gradient        0.0003091253            0.0001000000      NO
          MAX gradient        0.0022631785            0.0003000000      NO
          RMS step            0.0410877090            0.0020000000      NO
          MAX step            0.2837529364            0.0040000000      NO
          ........................................................
          Max(Bonds)      0.0275      Max(Angles)    4.77
          Max(Dihed)       16.26      Max(Improp)    0.00
          ---------------------------------------------------------------------

The optimization has not yet converged - more geometry cycles are needed


    ---------------------------------------------------------------------------
                         Redundant Internal Coordinates
                            (Angstroem and degrees)

        Definition                    Value    dE/dq     Step     New-Value
    ----------------------------------------------------------------------------
     1. B(N   2,O   1)                1.2228  0.000036  0.0002    1.2230   
     2. B(N   2,O   0)                1.2228 -0.000191  0.0002    1.2230   
     3. B(C   4,N   2)                1.4653 -0.000048  0.0001    1.4654   
     4. B(C   5,N   3)                1.3908  0.001327 -0.0037    1.3870   
     5. B(C   6,C   4)                1.3960 -0.000078  0.0004    1.3964   
     6. B(C   7,C   4)                1.3978  0.000071 -0.0005    1.3973   
     7. B(C   8,C   5)                1.4091 -0.000181  0.0007    1.4098   
     8. B(C   8,C   6)                1.3897  0.000252 -0.0006    1.3891   
     9. B(C   9,C   7)                1.3877 -0.000147  0.0001    1.3878   
    10. B(C   9,C   5)                1.4126  0.000234 -0.0005    1.4121   
    11. B(H  10,C   6)                1.0894 -0.000045  0.0002    1.0896   
    12. B(H  11,C   7)                1.0897  0.000027  0.0001    1.0899   
    13. B(H  12,C   8)                1.0931  0.000008  0.0002    1.0933   
    14. B(H  13,C   9)                1.0910 -0.000001 -0.0001    1.0909   
    15. B(H  14,N   3)                1.0107 -0.002263 -0.0066    1.0041   
    16. B(H  15,N   3)                1.0146 -0.000787  0.0109    1.0255   
    17. B(H  17,O  16)                0.9667 -0.000001  0.0003    0.9670   
    18. B(H  18,C   5)                2.7330  0.000490  0.0245    2.7576   
    19. B(H  18,H  15)                2.1480  0.000262 -0.0275    2.1204   
    20. B(H  18,H  14)                2.8784 -0.001267  0.0089    2.8873   
    21. B(H  18,N   3)                2.1271  0.000334  0.0146    2.1418   
    22. B(H  18,O  16)                0.9715 -0.000019 -0.0000    0.9715   
    23. A(O   0,N   2,C   4)          117.66 -0.000013   -0.00    117.66   
    24. A(O   0,N   2,O   1)          124.69  0.000089   -0.03    124.66   
    25. A(O   1,N   2,C   4)          117.65 -0.000076    0.03    117.69   
    26. A(C   5,N   3,H  15)          115.85  0.000003    0.84    116.69   
    27. A(H  14,N   3,H  18)          129.57  0.000249    0.54    130.11   
    28. A(H  14,N   3,H  15)          112.79 -0.000129    0.62    113.42   
    29. A(H  15,N   3,H  18)           77.42  0.000090   -2.51     74.90   
    30. A(C   5,N   3,H  18)           99.83 -0.000323    1.46    101.30   
    31. A(C   5,N   3,H  14)          116.07  0.000107   -1.43    114.64   
    32. A(N   2,C   4,C   7)          119.48  0.000123    0.02    119.50   
    33. A(N   2,C   4,C   6)          119.39  0.000025    0.04    119.43   
    34. A(C   6,C   4,C   7)          121.13 -0.000148   -0.06    121.07   
    35. A(N   3,C   5,C   8)          120.81 -0.000019   -0.65    120.16   
    36. A(C   9,C   5,H  18)           84.59 -0.000096    0.28     84.87   
    37. A(C   8,C   5,C   9)          119.09  0.000044   -0.10    118.99   
    38. A(C   8,C   5,H  18)          135.54  0.000068    0.67    136.22   
    39. A(N   3,C   5,H  18)           50.07  0.000053   -0.66     49.41   
    40. A(N   3,C   5,C   9)          120.03 -0.000023    0.76    120.79   
    41. A(C   8,C   6,H  10)          121.48 -0.000163   -0.09    121.39   
    42. A(C   4,C   6,H  10)          119.29  0.000312    0.09    119.38   
    43. A(C   4,C   6,C   8)          119.23 -0.000149   -0.00    119.23   
    44. A(C   4,C   7,C   9)          119.62  0.000413    0.05    119.66   
    45. A(C   9,C   7,H  11)          121.44 -0.000183    0.02    121.46   
    46. A(C   4,C   7,H  11)          118.95 -0.000230   -0.07    118.88   
    47. A(C   6,C   8,H  12)          119.69 -0.000175   -0.07    119.62   
    48. A(C   5,C   8,H  12)          119.63 -0.000001   -0.00    119.63   
    49. A(C   5,C   8,C   6)          120.68  0.000175    0.07    120.75   
    50. A(C   5,C   9,C   7)          120.26 -0.000336    0.04    120.30   
    51. A(C   5,C   9,H  13)          119.05  0.000094   -0.12    118.93   
    52. A(C   7,C   9,H  13)          120.66  0.000241    0.09    120.75   
    53. A(N   3,H  14,H  18)           34.73  0.000076   -0.15     34.58   
    54. A(N   3,H  15,H  18)           75.13  0.000146    2.18     77.31   
    55. A(H  17,O  16,H  18)          103.20  0.000271   -0.01    103.19   
    56. A(H  14,H  18,O  16)          152.92 -0.000227   -4.66    148.26   
    57. A(N   3,H  18,O  16)          139.10  0.000053   -4.77    134.33   
    58. A(C   5,H  18,H  14)           42.70 -0.000018   -1.18     41.52   
    59. A(N   3,H  18,C   5)           30.09  0.000270   -0.80     29.29   
    60. A(C   5,H  18,O  16)          121.77 -0.000126   -1.45    120.31   
    61. A(H  14,H  18,H  15)           35.61 -0.000445    0.06     35.67   
    62. A(N   3,H  18,H  15)           27.45 -0.000236    0.34     27.79   
    63. A(H  15,H  18,O  16)          117.79  0.000250   -3.95    113.85   
    64. A(C   5,H  18,H  15)           47.79  0.000055   -0.36     47.43   
    65. A(N   3,H  18,H  14)           15.70 -0.000326   -0.39     15.31   
    66. D(C   6,C   4,N   2,O   0)     -0.20 -0.000008   -0.13     -0.33   
    67. D(C   7,C   4,N   2,O   1)     -0.26 -0.000023    0.02     -0.24   
    68. D(C   6,C   4,N   2,O   1)    179.84 -0.000017   -0.05    179.78   
    69. D(C   7,C   4,N   2,O   0)    179.71 -0.000014   -0.05    179.65   
    70. D(C   8,C   5,N   3,H  15)   -153.53  0.000060   -1.46   -154.99   
    71. D(C   8,C   5,N   3,H  14)    -17.78 -0.000018   -1.03    -18.81   
    72. D(C   9,C   5,N   3,H  14)    165.18 -0.000053   -0.88    164.30   
    73. D(C   9,C   5,N   3,H  15)     29.43  0.000025   -1.31     28.12   
    74. D(C   8,C   5,N   3,H  18)    125.78  0.000108    0.58    126.36   
    75. D(C   9,C   5,N   3,H  18)    -51.26  0.000074    0.73    -50.53   
    76. D(H  10,C   6,C   4,N   2)     -0.14 -0.000013    0.08     -0.06   
    77. D(C   8,C   6,C   4,N   2)   -179.87 -0.000013   -0.03   -179.90   
    78. D(H  10,C   6,C   4,C   7)    179.96 -0.000008    0.01    179.96   
    79. D(C   8,C   6,C   4,C   7)      0.22 -0.000007   -0.10      0.12   
    80. D(C   9,C   7,C   4,N   2)    179.99  0.000000   -0.02    179.96   
    81. D(H  11,C   7,C   4,C   6)    179.72 -0.000001    0.14    179.86   
    82. D(H  11,C   7,C   4,N   2)     -0.19  0.000004    0.06     -0.12   
    83. D(C   9,C   7,C   4,C   6)     -0.11 -0.000005    0.05     -0.06   
    84. D(H  12,C   8,C   5,C   9)    179.88  0.000032   -0.03    179.85   
    85. D(H  12,C   8,C   5,N   3)      2.82  0.000000    0.05      2.86   
    86. D(C   5,C   8,C   6,H  10)   -179.69  0.000009   -0.09   -179.78   
    87. D(H  12,C   8,C   6,H  10)      0.03 -0.000024    0.06      0.09   
    88. D(C   5,C   8,C   6,C   4)      0.03  0.000010    0.02      0.05   
    89. D(C   6,C   8,C   5,H  18)   -114.79  0.000037   -1.11   -115.91   
    90. D(H  12,C   8,C   6,C   4)    179.76 -0.000023    0.17    179.93   
    91. D(C   6,C   8,C   5,C   9)     -0.40 -0.000001    0.12     -0.28   
    92. D(C   6,C   8,C   5,N   3)   -177.46 -0.000033    0.19   -177.27   
    93. D(C   7,C   9,C   5,N   3)    177.60  0.000018   -0.37    177.23   
    94. D(C   7,C   9,C   5,H  18)    140.67  0.000023    1.36    142.03   
    95. D(H  13,C   9,C   5,N   3)     -0.16  0.000057   -0.64     -0.80   
    96. D(C   7,C   9,C   5,C   8)      0.52 -0.000014   -0.17      0.34   
    97. D(H  13,C   9,C   7,H  11)     -2.37 -0.000031    0.25     -2.12   
    98. D(H  13,C   9,C   7,C   4)    177.46 -0.000027    0.34    177.80   
    99. D(C   5,C   9,C   7,H  11)    179.91  0.000012   -0.01    179.90   
   100. D(C   5,C   9,C   7,C   4)     -0.27  0.000016    0.08     -0.18   
   101. D(H  13,C   9,C   5,C   8)   -177.24  0.000025   -0.45   -177.69   
   102. D(H  18,H  14,N   3,H  15)    -92.33 -0.000129    1.70    -90.64   
   103. D(H  18,H  14,N   3,C   5)    130.60 -0.000106    1.23    131.84   
   104. D(H  18,H  15,N   3,H  14)    127.89  0.000297    0.07    127.96   
   105. D(H  18,H  15,N   3,C   5)    -94.95  0.000322   -0.47    -95.42   
   106. D(H  14,H  18,O  16,H  17)   -110.92  0.000287  -14.69   -125.60   
   107. D(N   3,H  18,O  16,H  17)    -97.30 -0.000061   -1.50    -98.79   
   108. D(C   5,H  18,H  15,N   3)     38.03  0.000302   -0.89     37.14   
   109. D(O  16,H  18,H  15,N   3)    147.01 -0.000052   -0.36    146.65   
   110. D(C   5,H  18,H  14,N   3)    -30.78 -0.000279   -0.22    -31.01   
   111. D(H  15,H  18,H  14,N   3)     48.36  0.000220    0.41     48.76   
   112. D(H  14,H  18,C   5,C   8)    -79.75 -0.000301    1.15    -78.60   
   113. D(H  14,H  18,C   5,N   3)     16.04 -0.000332   -0.04     15.99   
   114. D(N   3,H  18,C   5,C   9)    137.29  0.000034    0.33    137.61   
   115. D(N   3,H  18,C   5,C   8)    -95.79  0.000032    1.19    -94.60   
   116. D(O  16,H  18,C   5,C   9)      2.49 -0.000084    4.31      6.80   
   117. D(O  16,H  18,C   5,C   8)    129.42 -0.000086    5.17    134.59   
   118. D(O  16,H  18,C   5,N   3)   -134.80 -0.000118    3.98   -130.81   
   119. D(O  16,H  18,H  14,N   3)     34.73 -0.000235   16.26     50.99   
   120. D(H  15,H  18,N   3,H  14)   -109.30  0.000082   -0.56   -109.86   
   121. D(H  15,H  18,N   3,C   5)    114.50  0.000065   -0.17    114.34   
   122. D(H  14,H  18,N   3,H  15)    109.30 -0.000082    0.56    109.86   
   123. D(H  14,H  18,H  15,N   3)    -26.03  0.000248    1.00    -25.02   
   124. D(H  14,H  18,N   3,C   5)   -136.20 -0.000017    0.39   -135.81   
   125. D(O  16,H  18,N   3,H  15)    -47.37 -0.000010    3.87    -43.50   
   126. D(O  16,H  18,N   3,H  14)   -156.66  0.000072    3.31   -153.35   
   127. D(H  15,H  18,O  16,H  17)   -119.84  0.000069    2.25   -117.59   
   128. D(O  16,H  18,N   3,C   5)     67.14  0.000055    3.70     70.84   
   129. D(C   5,H  18,O  16,H  17)    -64.38  0.000205   -0.92    -65.30   
    ----------------------------------------------------------------------------

Geometry step timings:
Preparation and reading OPT file:      0.002 s (15.692 %)
Internal coordinates            :      0.000 s ( 0.336 %)
B/P matrices and projection     :      0.001 s (11.814 %)
Hessian update/contruction      :      0.003 s (28.105 %)
Making the step                 :      0.002 s (20.439 %)
Converting the step to Cartesian:      0.000 s ( 1.172 %)
Storing new data                :      0.000 s ( 3.993 %)
Checking convergence            :      0.000 s ( 0.139 %)
Final printing                  :      0.002 s (18.300 %)
Total time                      :      0.012 s
--------------------------------------------------------------------------
By default, for Open MPI 4.0 and later, infiniband ports on a device
are not used by default.  The intent is to use UCX for these devices.
You can override this policy by setting the btl_openib_allow_ib MCA parameter
to true.

  Local host:              psid10
  Local adapter:           mlx4_0
  Local port:              1

--------------------------------------------------------------------------
--------------------------------------------------------------------------
WARNING: There was an error initializing an OpenFabrics device.

  Local host:   psid10
  Local device: mlx4_0
--------------------------------------------------------------------------
[psid10:217579] 27 more processes have sent help message help-mpi-btl-openib.txt / ib port not selected
[psid10:217579] Set MCA parameter "orte_base_help_aggregate" to 0 to see all help / error messages
[psid10:217579] 27 more processes have sent help message help-mpi-btl-openib.txt / error in device init

Time for energy+gradient        :     10.303 s
Time for complete geometry iter :     11.549 s




    ----------------------------------------------------------------------------
                                  WARNING !!!
       The optimization did not converge but reached the maximum number of
       optimization cycles.
       Please check your results very carefully.
    ----------------------------------------------------------------------------



--------------------------------
SUGGESTED CITATIONS FOR THIS RUN
--------------------------------

Below you find a list of papers that are relevant to this ORCA run
We neither can nor want to force you to cite these papers, but we appreciate if you do
You receive ORCA, which is the product of decades of hard work by many enthusiastic individuals, for free
The only thing we kindly ask in return is that you cite our papers,
We deeply appreciate it, if you show your appreciation for ORCA by not just citing the generic ORCA reference.

Please note that relegating all ORCA citations to the supporting information does *not* help us.
SI sections are not indexed - citations you put there will not count into any citation statistics
But we need these citations in order to attract the funding resources that allow us to do what we are doing

Therefore, if you are a happy ORCA user, please consider citing a few of the papers listed below in the main body of your paper

In addition to the list printed below, the program has created the file 4nitroaniline_water_2_OPT.bibtex that contains the list in bibtex format
You can import this file easily into all common literature databanks and citation aid programs


List of essential papers. We consider these as the minimum necessary citations

  1. Neese,F.
     Software update: the ORCA program system, version 5.0
     WIRES Comput. Molec. Sci., 2022 12(1)e1606
     doi.org/10.1002/wcms.1606

List of papers to cite with high priority. The work reported in these papers was absolutely
necessary for this run to complete.
Our perspective: the developers of density functionals and basis sets usually get cited in chemistry papers
Good! But without the algorithms to do something with them, the functionals or basis sets would not do anything.
Hence, in our opinion, the algorithm design and method developments papers are equally worthy of getting cited

  1. Neese,F.
     An improvement of the resolution of the identity approximation for the formation of the Coulomb matrix
     J. Comp. Chem., 2003 24(14)1740-1747
     doi.org/10.1002/jcc.10318
  2. Neese,F.; Wennmohs,F.; Hansen,A.; Becker,U.
     Efficient, approximate and parallel Hartree-Fock and hybrid DFT calculations. A 'chain-of-spheres' algorithm for the Hartree-Fock exchange
     Chem. Phys., 2009 356(1-3)98-109
     doi.org/10.1016/j.chemphys.2008.10.036
  3. Helmich-Paris,B.; de Souza,B.; Neese,F.; Izsák,R.
     An improved chain of spheres for exchange algorithm
     J. Chem. Phys., 2021 155 104109
     doi.org/doi: 10.1063/5.0058766.
  4. Neese,F.
     The SHARK Integral Generation and Digestion System
     J. Comp. Chem., 2022  1-16
     doi.org/10.1002/jcc.26942
  5. Grimme,S.; Antony,J.; Ehrlich,S.; Krieg,H.
     A consistent and accurate ab initio parametrization of density functional dispersion correction (DFT-D) for the 94 elements H-Pu
     J. Chem. Phys., 2010 132 154104
     doi.org/10.1063/1.3382344
  6. Grimme,S.; Ehrlich,S.; Goerigk,L.
     Effect of the damping function in dispersion corrected density functional theory
     J. Comput. Chem., 2011 32(7)1456-1465
     doi.org/10.1002/jcc.21759

List of suggested additional citations. These are papers that are important in the 'surrounding' of 
of this run, or papers that preceded the highly important papers. If you like your results we are grateful for a citation.

  1. Izsak,R.; Neese,F.
     An overlap fitted chain of spheres exchange method
     J. Chem. Phys., 2011 135 144105
     doi.org/10.1063/1.3646921
  2. Izsak,R.; Hansen,A.; Neese,F.
     The resolution of identity and chain of spheres approximations for the LPNO-CCSD singles Fock term
     Molec. Phys., 2012 110 2413-2417
     doi.org/10.1080/00268976.2012.687466
  3. Neese,F.
     The ORCA program system
     WIRES Comput. Molec. Sci., 2012 2(1)73-78
     doi.org/10.1002/wcms.81
  4. Izsak,R.; Neese,F.; Klopper,W.
     Robust fitting techniques in the chain of spheres approximation to the Fock exchange: The role of the complementary space
     J. Chem. Phys., 2013 139 
     doi.org/10.1063/1.4819264
  5. Neese,F.
     Software update: the ORCA program system, version 4.0
     WIRES Comput. Molec. Sci., 2018 8(1)1-6
     doi.org/10.1002/wcms.1327
  6. Neese,F.; Wennmohs,F.; Becker,U.; Riplinger,C.
     The ORCA quantum chemistry program package
     J. Chem. Phys., 2020 152 Art. No. L224108
     doi.org/10.1063/5.0004608

List of optional additional citations

  1. Neese,F.
     Approximate second-order SCF convergence for spin unrestricted wavefunctions
     Chem. Phys. Lett., 2000 325(1-3)93-98
     doi.org/10.1016/s0009-2614(00)00662-x

Timings for individual modules:

Sum of individual times          ...      567.519 sec (=   9.459 min)
Startup calculation              ...      100.491 sec (=   1.675 min)  17.7 %
SCF iterations                   ...      327.754 sec (=   5.463 min)  57.8 %
SCF Gradient evaluation          ...      138.580 sec (=   2.310 min)  24.4 %
Geometry relaxation              ...        0.694 sec (=   0.012 min)   0.1 %
                             ****ORCA TERMINATED NORMALLY****
TOTAL RUN TIME: 0 days 0 hours 10 minutes 43 seconds 980 msec
