
                                 *****************
                                 * O   R   C   A *
                                 *****************

                                            #,                                       
                                            ###                                      
                                            ####                                     
                                            #####                                    
                                            ######                                   
                                           ########,                                 
                                     ,,################,,,,,                         
                               ,,#################################,,                 
                          ,,##########################################,,             
                       ,#########################################, ''#####,          
                    ,#############################################,,   '####,        
                  ,##################################################,,,,####,       
                ,###########''''           ''''###############################       
              ,#####''   ,,,,##########,,,,          '''####'''          '####       
            ,##' ,,,,###########################,,,                        '##       
           ' ,,###''''                  '''############,,,                           
         ,,##''                                '''############,,,,        ,,,,,,###''
      ,#''                                            '''#######################'''  
     '                                                          ''''####''''         
             ,#######,   #######,   ,#######,      ##                                
            ,#'     '#,  ##    ##  ,#'     '#,    #''#        ,####,   ,####,        
            ##       ##  ##   ,#'  ##            #'  '#       #'       #'  '#        
            ##       ##  #######   ##           ,######,      #####,   #    #        
            '#,     ,#'  ##    ##  '#,     ,#' ,#      #,     #,   #   #,  ,#        
             '#######'   ##     ##  '#######'  #'      '#     '####' # '####'        



                #########################################################
                #                        -***-                          #
                #          Department of theory and spectroscopy        #
                #                                                       #
                #                      Frank Neese                      #
                #                                                       #
                #     Directorship, Architecture, Infrastructure        #
                #                    SHARK, DRIVERS                     #
                #        Core code/Algorithms in most modules           #
                #                                                       #
                #        Max Planck Institute fuer Kohlenforschung      #
                #                Kaiser Wilhelm Platz 1                 #
                #                 D-45470 Muelheim/Ruhr                 #
                #                      Germany                          #
                #                                                       #
                #                  All rights reserved                  #
                #                        -***-                          #
                #########################################################


                         Program Version 6.0.1  -  RELEASE   -


 With contributions from (in alphabetic order):
[Max-Planck-Institut fuer Kohlenforschung]                               
  Daniel Aravena         : Magnetic Suceptibility                        
  Michael Atanasov       : Ab Initio Ligand Field Theory (pilot matlab implementation)
  Alexander A. Auer      : GIAO ZORA, VPT2 properties, NMR spectrum      
  Ute Becker             : All parallelization in ORCA, NUMFREQ, NUMCALC 
  Giovanni Bistoni       : ED, misc. LED, open-shell LED, HFLD           
  Martin Brehm           : Molecular dynamics                            
  Dmytro Bykov           : pre 5.0 version of the SCF Hessian            
  Marcos Casanova-Páez   : Triplet and SCS-CIS(D). UHF-(DLPNO)-IP/EA/STEOM-CCSD. UHF-CVS-IP/STEOM-CCSD   
  Vijay G. Chilkuri      : MRCI spin determinant printing, contributions to CSF-ICE 
  Pauline Colinet        : FMM embedding                                 
  Dipayan Datta          : RHF DLPNO-CCSD density                        
  Achintya Kumar Dutta   : EOM-CC, STEOM-CC                              
  Nicolas Foglia         : Exact transition moments, OPA infrastructure, MCD improvements    
  Dmitry Ganyushin       : Spin-Orbit,Spin-Spin,Magnetic field MRCI      
  Miquel Garcia-Rates    : C-PCM and meta-GGA Hessian, CCSD/C-PCM, Gaussian charge scheme 
  Tiago L. C. Gouveia    : GS-ROHF, GS-ROCIS                             
  Yang Guo               : DLPNO-NEVPT2, F12-NEVPT2, CIM, IAO-localization        
  Andreas Hansen         : Spin unrestricted coupled pair/coupled cluster methods 
  Ingolf Harden          : AUTO-CI MPn and infrastructure                
  Benjamin Helmich-Paris : MC-RPA, TRAH-(SCF,CASSCF), AVAS, COSX integrals, SCF dyn. polar. 
  Lee Huntington         : MR-EOM, pCC                                   
  Robert Izsak           : Overlap fitted RIJCOSX, COSX-SCS-MP3, EOM     
  Riya Kayal             : Wick's Theorem for AUTO-CI, AUTO-CI UHF-CCSDT 
  Emily Kempfer          : AUTO-CI, RHF CISDT and CCSDT                  
  Christian Kollmar      : KDIIS, OOCD, Brueckner-CCSD(T), CCSD density, CASPT2, CASPT2-K, improved NEVPT2 
  Axel Koslowski         : Symmetry handling                             
  Simone Kossmann        : meta-GGA functionals, TD-DFT gradient, OOMP2, (MP2 Hessian; deprecated post 5.0) 
  Lucas Lang             : DCDCAS                                        
  Marvin Lechner         : AUTO-CI (C++ implementation), FIC-MRCC        
  Spencer Leger          : CASSCF response                               
  Dagmar Lenk            : GEPOL surface, SMD, ORCA-2-JSON               
  Dimitrios Liakos       : Extrapolation schemes; Compound Job, initial MDCI parallelization 
  Dimitrios Manganas     : Further ROCIS development; embedding schemes. LFT, Crystal Embedding 
  Dimitrios Pantazis     : SARC Basis sets                               
  Anastasios Papadopoulos: AUTO-CI, single reference methods and gradients 
  Taras Petrenko         : pre 6.0 DFT Hessian and TD-DFT gradient, (ASA, deprecated), ECA, 1-Electron XAS/XES, NRVS 
  Peter Pinski           : DLPNO-MP2, DLPNO-MP2 Gradient                 
  Christoph Reimann      : Effective Core Potentials                     
  Marius Retegan         : Local ZFS, SOC                                
  Christoph Riplinger    : Optimizer, TS searches, QM/MM, DLPNO-CCSD(T), (RO)-DLPNO pert. Triples 
  Michael Roemelt        : Original ROCIS implementation                 
  Masaaki Saitow         : Open-shell DLPNO-CCSD energy and density      
  Barbara Sandhoefer     : DKH picture change effects                    
  Kantharuban Sivalingam : CASSCF convergence/infrastructure, NEVPT2 and variants, FIC-MRCI 
  Bernardo de Souza      : ESD, SOC TD-DFT                               
  Georgi L. Stoychev     : AutoAux, RI-MP2 NMR, DLPNO-MP2 response, X2C  
  Van Anh Tran           : RI-MP2 g-tensors                              
  Willem Van den Heuvel  : Paramagnetic NMR                              
  Zikuan Wang            : NOTCH, Electric field optimization            
  Frank Wennmohs         : Technical directorship and infrastructure     
  Hang Xu                : AUTO-CI-Response properties                   
                                                                         
[FACCTs GmbH]                                                            
  Markus Bursch, Miquel Garcia-Rates, Christoph Riplinger, Bernardo de Souza, Georgi L. Stoychev 
                                                                 
  APM, Basis sets (HGBS, AHGBS, def-TZVP (Ac-Lr), def2-XVPD (La-Lu)), CI-OPT, improved COSX, DLPNO-Multilevel,           
  DOCKER, DRACO, updates on ESD, GOAT, IRC, LR-CPCM, MBIS, meta-GGA TD-DFT gradient, ML-optimized integration grids, 
  MM, NACMEs, nearIR, NEB, NEB-TS, NL-DFT gradient (VV10), 2- and 3-layer-ONIOM, interface openCOSMO-RS, QMMM,   
  Crystal-QMMM, SF, symmetry and pop. for TD-DFT, r2SCAN hybrids, SOLVATOR                                   
                                                                         
[Other institutions]                                                     
  V. Asgeirsson          : NEB                                           
  Christoph Bannwarth    : sTDA-DFT, sTD-DFT, PBEh-3c, B97-3c, D3        
  Sebastian Ehlert       : rSCAN, r2SCAN, r2SCAN-3c, D4, dhf basis sets  
  Marvin Friede          : D4 for Fr, Ra, Ac-Lr                          
  Lars Goerigk           : TD-DFT with DH, B97 family of functionals     
  Stefan Grimme          : VdW corrections, initial TS optimization, DFT functionals, gCP, sTDA/sTD-DF 
  Waldemar Hujo          : DFT-NL                                        
  H. Jonsson             : NEB                                           
  Holger Kruse           : gCP                                           
  Marcel Mueller         : wB97X-3c, vDZP basis set                      
  Hagen Neugebauer       : wr2SCAN                                       
  Tobias Risthaus        : range-separated hybrid DFT                    
  Lukas Wittmann         : regularized MP2, r2SCAN double-hybrids, wr2SCAN        
                                                                         
We gratefully acknowledge several colleagues who have allowed us to      
interface, adapt or use parts of their codes:                            
  Ed Valeev, F. Pavosevic, A. Kumar             : LibInt (2-el integral package), F12 methods 
  Garnet Chan, S. Sharma, J. Yang, R. Olivares  : DMRG                   
  Ulf Ekstrom                                   : XCFun DFT Library      
  Mihaly Kallay                                 : mrcc  (arbitrary order and MRCC methods)
  Frank Weinhold                                : gennbo (NPA and NBO analysis)           
  Simon Mueller                                 : openCOSMO-RS                            
  Christopher J. Cramer and Donald G. Truhlar   : smd solvation model                     
  S Lehtola, MJT Oliveira, MAL Marques          : LibXC Library                           
  Liviu Ungur et al                             : ANISO software                          


 Your calculation uses the libint2 library for the computation of 2-el integrals
 For citations please refer to: http://libint.valeyev.net

 Your ORCA version has been built with support for libXC version: 6.2.2
 For citations please refer to: https://libxc.gitlab.io

 This ORCA versions uses:
   CBLAS   interface :  Fast vector & matrix operations
   LAPACKE interface :  Fast linear algebra routines
   SCALAPACK package :  Parallel linear algebra routines
   Shared memory     :  Shared parallel matrices
   BLAS/LAPACK       :  OpenBLAS 0.3.27  USE64BITINT DYNAMIC_ARCH NO_AFFINITY SkylakeX SINGLE_THREADED
        Core in use  :  SkylakeX
   Copyright (c) 2011-2014, The OpenBLAS Project


NOTE: MaxCore=4000 MB was set to SCF,MP2,MDCI,CIPSI,MRCI and CIS
      => If you want to overwrite this, your respective input block should be placed after the MaxCore statement
Your calculation utilizes the atom-pairwise dispersion correction
with the Becke-Johnson damping scheme (D3BJ)


Warning: RI is on but no J-basis has been assigned. Assigning Def2/J (nothing to worry about!)
================================================================================

----- Orbital basis set information -----
Your calculation utilizes the basis: def2-SVP
   F. Weigend and R. Ahlrichs, Phys. Chem. Chem. Phys. 7, 3297 (2005).

----- AuxJ basis set information -----
Your calculation utilizes the auxiliary basis: def2/J
   F. Weigend, Phys. Chem. Chem. Phys. 8, 1057 (2006).

================================================================================
                                        WARNINGS
                       Please study these warnings very carefully!
================================================================================


WARNING: Geometry Optimization
  ===> : Switching off AutoStart
         For restart on a previous wavefunction, please use MOREAD

================================================================================
                                       INPUT FILE
================================================================================
NAME = aniline_water_2_OPT.inp
|  1> ! B3LYP def2-SVP OPT TightSCF D3BJ
|  2> 
|  3> 
|  4> %maxcore 4000
|  5> 
|  6> %pal
|  7> nprocs 28
|  8> end
|  9> 
| 10> * xyz 0 1
| 11> N       -2.3947729961     -0.0001474642      0.0025915561                 
| 12> C       -1.0200608510     -0.0000289878      0.0010976808                 
| 13> C       -0.2945157800      1.2101059748      0.0007086406                 
| 14> C       -0.2943079148     -1.2100407791      0.0007349659                 
| 15> C        1.0991996843      1.2029432329      0.0000689553                 
| 16> C        1.0994069845     -1.2026382846      0.0000976501                 
| 17> C        1.8128645108      0.0002133039     -0.0002414326                 
| 18> H       -0.8369807370      2.1600809974      0.0010002733                 
| 19> H       -0.8366059466     -2.1601114428      0.0010469186                 
| 20> H        1.6355670952      2.1558960203     -0.0002260275                 
| 21> H        1.6359340076     -2.1555013744     -0.0001741080                 
| 22> H        2.9047834001      0.0003104149     -0.0007757069                 
| 23> H       -2.9122831349     -0.8657023728     -0.0032016159                 
| 24> H       -2.9124283218      0.8653207617     -0.0032277497                 
| 25> O       -2.9580995839      0.0683457361      2.8517910585                 
| 26> H       -2.1780277215      0.0329754620      3.4219896933                 
| 27> H       -2.5786623702      0.0901756436      1.9627601783                 
| 28> *         
| 29>           
| 30> 
| 31>                          ****END OF INPUT****
================================================================================

                       *****************************
                       * Geometry Optimization Run *
                       *****************************

Geometry optimization settings:
Update method            Update   .... BFGS
Choice of coordinates    CoordSys .... (2022) Redundant Internals
Initial Hessian          InHess   .... Almloef's Model
Max. no of cycles        MaxIter  .... 51

Convergence Tolerances:
Energy Change            TolE     ....  5.0000e-06 Eh
Max. Gradient            TolMAXG  ....  3.0000e-04 Eh/bohr
RMS Gradient             TolRMSG  ....  1.0000e-04 Eh/bohr
Max. Displacement        TolMAXD  ....  4.0000e-03 bohr
RMS Displacement         TolRMSD  ....  2.0000e-03 bohr
Strict Convergence                .... False

------------------------------------------------------------------------------
                        ORCA OPTIMIZATION COORDINATE SETUP
------------------------------------------------------------------------------

The optimization will be done in redundant internal coordinates (2022)
Making redundant internal coordinates   ...  (2022 redundants) done
Evaluating the initial hessian          ...  (Almloef) done
Evaluating the coordinates              ...  done
Calculating the B-matrix                .... done
Calculating the G-matrix                .... done
Diagonalizing the G-matrix              .... done
The first mode is                       ....   75
The number of degrees of freedom        ....   45

    -----------------------------------------------------------------
                    Redundant Internal Coordinates


    -----------------------------------------------------------------
         Definition                    Initial Value    Approx d2E/dq
    -----------------------------------------------------------------
      1. B(C   1,N   0)                  1.3747         0.591923   
      2. B(C   2,C   1)                  1.4110         0.578467   
      3. B(C   3,C   1)                  1.4110         0.578465   
      4. B(C   4,C   2)                  1.3937         0.616284   
      5. B(C   5,C   3)                  1.3937         0.616283   
      6. B(C   6,C   5)                  1.3985         0.605531   
      7. B(C   6,C   4)                  1.3985         0.605529   
      8. B(H   7,C   2)                  1.0939         0.354916   
      9. B(H   8,C   3)                  1.0939         0.354915   
     10. B(H   9,C   4)                  1.0935         0.355460   
     11. B(H  10,C   5)                  1.0935         0.355459   
     12. B(H  11,C   6)                  1.0919         0.357570   
     13. B(H  12,N   0)                  1.0085         0.435128   
     14. B(H  13,N   0)                  1.0085         0.435128   
     15. B(H  15,O  14)                  0.9669         0.506948   
     16. B(H  16,C   1)                  2.5071         0.001975   
     17. B(H  16,H  12)                  2.2113         0.001121   
     18. B(H  16,H  13)                  2.1395         0.001459   
     19. B(H  16,N   0)                  1.9708         0.012683   
     20. B(H  16,O  14)                  0.9669         0.507010   
     21. A(H  13,N   0,H  16)           85.3261         0.185497   
     22. A(H  12,N   0,H  16)           89.8377         0.185497   
     23. A(C   1,N   0,H  16)           95.4157         0.209035   
     24. A(C   1,N   0,H  13)          120.8786         0.356192   
     25. A(H  12,N   0,H  13)          118.2373         0.303799   
     26. A(C   1,N   0,H  12)          120.8789         0.356192   
     27. A(C   2,C   1,H  16)          106.8001         0.168968   
     28. A(C   3,C   1,H  16)          110.5378         0.168968   
     29. A(N   0,C   1,H  16)           51.4993         0.168724   
     30. A(N   0,C   1,C   2)          120.9500         0.422382   
     31. A(C   2,C   1,C   3)          118.1000         0.423403   
     32. A(N   0,C   1,C   3)          120.9500         0.422382   
     33. A(C   4,C   2,H   7)          120.0222         0.351687   
     34. A(C   1,C   2,H   7)          119.3272         0.347948   
     35. A(C   1,C   2,C   4)          120.6506         0.428231   
     36. A(C   5,C   3,H   8)          120.0219         0.351686   
     37. A(C   1,C   3,H   8)          119.3275         0.347948   
     38. A(C   1,C   3,C   5)          120.6506         0.428231   
     39. A(C   6,C   4,H   9)          119.9434         0.350733   
     40. A(C   2,C   4,C   6)          120.9781         0.431760   
     41. A(C   2,C   4,H   9)          119.0784         0.351778   
     42. A(C   3,C   5,H  10)          119.0782         0.351777   
     43. A(C   3,C   5,C   6)          120.9781         0.431760   
     44. A(C   6,C   5,H  10)          119.9437         0.350733   
     45. A(C   5,C   6,H  11)          120.6789         0.351084   
     46. A(C   4,C   6,H  11)          120.6786         0.351083   
     47. A(C   4,C   6,C   5)          118.6425         0.430397   
     48. A(N   0,H  12,H  16)           63.0298         0.134079   
     49. A(N   0,H  13,H  16)           66.6525         0.136855   
     50. A(H  15,O  14,H  16)          103.0888         0.319185   
     51. A(H  12,H  16,O  14)          138.4609         0.135666   
     52. A(N   0,H  16,H  13)           28.0214         0.110498   
     53. A(H  13,H  16,O  14)          142.3631         0.138540   
     54. A(N   0,H  16,O  14)          161.8235         0.188895   
     55. A(C   1,H  16,H  12)           51.8745         0.102451   
     56. A(C   1,H  16,H  13)           52.4843         0.103279   
     57. A(N   0,H  16,C   1)           33.0850         0.117793   
     58. A(C   1,H  16,O  14)          164.2846         0.155348   
     59. A(H  12,H  16,H  13)           46.8531         0.099043   
     60. A(N   0,H  16,H  12)           27.1324         0.109252   
     61. D(C   3,C   1,N   0,H  16)     92.6189         0.032932   
     62. D(C   3,C   1,N   0,H  13)   -179.5977         0.032932   
     63. D(C   2,C   1,N   0,H  13)      0.4414         0.032932   
     64. D(C   3,C   1,N   0,H  12)     -0.4409         0.032932   
     65. D(C   2,C   1,N   0,H  16)    -87.3421         0.032932   
     66. D(C   2,C   1,N   0,H  12)    179.5982         0.032932   
     67. D(H   7,C   2,C   1,C   3)   -179.9987         0.024957   
     68. D(C   4,C   2,C   1,H  16)    125.2110         0.024957   
     69. D(C   4,C   2,C   1,N   0)    179.9581         0.024957   
     70. D(C   4,C   2,C   1,C   3)     -0.0039         0.024957   
     71. D(H   7,C   2,C   1,N   0)     -0.0367         0.024957   
     72. D(C   5,C   3,C   1,H  16)   -123.3583         0.024957   
     73. D(C   5,C   3,C   1,C   2)      0.0040         0.024957   
     74. D(C   5,C   3,C   1,N   0)   -179.9580         0.024957   
     75. D(H   8,C   3,C   1,C   2)    179.9988         0.024957   
     76. D(H   8,C   3,C   1,N   0)      0.0368         0.024957   
     77. D(H   9,C   4,C   2,H   7)     -0.0055         0.026263   
     78. D(H   9,C   4,C   2,C   1)    179.9997         0.026263   
     79. D(C   6,C   4,C   2,H   7)    179.9966         0.026263   
     80. D(C   6,C   4,C   2,C   1)      0.0018         0.026263   
     81. D(H  10,C   5,C   3,C   1)   -179.9999         0.026262   
     82. D(H  10,C   5,C   3,H   8)      0.0055         0.026262   
     83. D(C   6,C   5,C   3,H   8)   -179.9967         0.026262   
     84. D(C   6,C   5,C   3,C   1)     -0.0021         0.026262   
     85. D(H  11,C   6,C   5,C   3)   -179.9979         0.025303   
     86. D(C   4,C   6,C   5,H  10)    179.9976         0.025303   
     87. D(H  11,C   6,C   4,H   9)      0.0001         0.025302   
     88. D(C   5,C   6,C   4,H   9)   -179.9976         0.025302   
     89. D(H  11,C   6,C   4,C   2)    179.9980         0.025302   
     90. D(C   4,C   6,C   5,C   3)     -0.0001         0.025303   
     91. D(C   5,C   6,C   4,C   2)      0.0003         0.025302   
     92. D(H  11,C   6,C   5,H  10)     -0.0001         0.025303   
     93. D(H  16,H  12,N   0,H  13)    -84.6055         0.243095   
     94. D(H  16,H  12,N   0,C   1)     96.2159         0.243095   
     95. D(H  16,H  13,N   0,H  12)     87.2985         0.243094   
     96. D(H  16,H  13,N   0,C   1)    -93.5229         0.243094   
     97. D(C   1,H  16,O  14,H  15)     10.4540         0.392165   
     98. D(H  13,H  16,O  14,H  15)   -147.5071         0.392165   
     99. D(N   0,H  16,O  14,H  15)    165.6893         0.392165   
    100. D(C   1,H  16,H  13,N   0)     36.3127         0.001523   
    101. D(O  14,H  16,H  13,N   0)   -151.0492         0.001523   
    102. D(C   1,H  16,H  12,N   0)    -36.4924         0.001514   
    103. D(H  13,H  16,H  12,N   0)     34.5174         0.001514   
    104. D(O  14,H  16,H  12,N   0)    159.8807         0.001514   
    105. D(H  13,H  16,C   1,C   2)     85.8650         0.001503   
    106. D(H  13,H  16,C   1,N   0)    -30.6409         0.001503   
    107. D(N   0,H  16,C   1,C   3)   -113.8129         0.001503   
    108. D(N   0,H  16,C   1,C   2)    116.5059         0.001503   
    109. D(O  14,H  16,C   1,C   3)     52.3374         0.001503   
    110. D(O  14,H  16,C   1,C   2)    -77.3439         0.001503   
    111. D(O  14,H  16,C   1,N   0)    166.1502         0.001503   
    112. D(H  12,H  16,N   0,H  13)    118.3552         0.001617   
    113. D(H  12,H  16,N   0,C   1)   -121.0148         0.001617   
    114. D(H  12,H  16,H  13,N   0)    -33.3718         0.001523   
    115. D(H  13,H  16,N   0,H  12)   -118.3552         0.001617   
    116. D(H  13,H  16,N   0,C   1)    120.6299         0.001617   
    117. D(O  14,H  16,N   0,H  13)     71.3664         0.001617   
    118. D(H  12,H  16,O  14,H  15)    135.4989         0.392165   
    119. D(O  14,H  16,N   0,H  12)    -46.9889         0.001617   
    120. D(O  14,H  16,N   0,C   1)   -168.0037         0.001617   
    -----------------------------------------------------------------

Number of atoms                         .... 17
Number of degrees of freedom            .... 120


         *************************************************************
         *                GEOMETRY OPTIMIZATION CYCLE   1            *
         *************************************************************
---------------------------------
CARTESIAN COORDINATES (ANGSTROEM)
---------------------------------
  N     -2.394773   -0.000147    0.002592
  C     -1.020061   -0.000029    0.001098
  C     -0.294516    1.210106    0.000709
  C     -0.294308   -1.210041    0.000735
  C      1.099200    1.202943    0.000069
  C      1.099407   -1.202638    0.000098
  C      1.812865    0.000213   -0.000241
  H     -0.836981    2.160081    0.001000
  H     -0.836606   -2.160111    0.001047
  H      1.635567    2.155896   -0.000226
  H      1.635934   -2.155501   -0.000174
  H      2.904783    0.000310   -0.000776
  H     -2.912283   -0.865702   -0.003202
  H     -2.912428    0.865321   -0.003228
  O     -2.958100    0.068346    2.851791
  H     -2.178028    0.032975    3.421990
  H     -2.578662    0.090176    1.962760

----------------------------
CARTESIAN COORDINATES (A.U.)
----------------------------
  NO LB      ZA    FRAG     MASS         X           Y           Z
   0 N     7.0000    0    14.007   -4.525465   -0.000279    0.004897
   1 C     6.0000    0    12.011   -1.927636   -0.000055    0.002074
   2 C     6.0000    0    12.011   -0.556554    2.286769    0.001339
   3 C     6.0000    0    12.011   -0.556161   -2.286646    0.001389
   4 C     6.0000    0    12.011    2.077186    2.273233    0.000130
   5 C     6.0000    0    12.011    2.077578   -2.272657    0.000185
   6 C     6.0000    0    12.011    3.425817    0.000403   -0.000456
   7 H     1.0000    0     1.008   -1.581664    4.081962    0.001890
   8 H     1.0000    0     1.008   -1.580956   -4.082019    0.001978
   9 H     1.0000    0     1.008    3.090774    4.074053   -0.000427
  10 H     1.0000    0     1.008    3.091467   -4.073307   -0.000329
  11 H     1.0000    0     1.008    5.489245    0.000587   -0.001466
  12 H     1.0000    0     1.008   -5.503418   -1.635940   -0.006050
  13 H     1.0000    0     1.008   -5.503692    1.635219   -0.006100
  14 O     8.0000    0    15.999   -5.589998    0.129155    5.389104
  15 H     1.0000    0     1.008   -4.115876    0.062315    6.466623
  16 H     1.0000    0     1.008   -4.872966    0.170407    3.709079

--------------------------------
INTERNAL COORDINATES (ANGSTROEM)
--------------------------------
 N      0   0   0     0.000000000000     0.00000000     0.00000000
 C      1   0   0     1.374712961889     0.00000000     0.00000000
 C      2   1   0     1.410972157454   120.95003234     0.00000000
 C      2   1   3     1.410973419682   120.94996665   179.96092077
 C      3   2   1     1.393734016769   120.65064114   179.95808038
 C      4   2   1     1.393734703459   120.65059593   180.04204040
 C      6   4   2     1.398525545268   120.97812665     0.00000000
 H      3   2   1     1.093947374505   119.32720089   359.96326928
 H      4   2   1     1.093947676368   119.32746569     0.03675148
 H      5   3   2     1.093530567247   119.07843566   179.99971899
 H      6   4   2     1.093530698368   119.07817209   180.00012780
 H      7   6   4     1.091919024328   120.67890781   180.00213690
 H      1   2   3     1.008481831470   120.87888805   179.59818940
 H      1   2   3     1.008482102265   120.87861236     0.44137183
 O      1   2   3     2.905161952024   101.24291271   271.39728300
 H     15   1   2     0.966896917942   114.90147370   356.78640860
 H     15   1   2     0.966863511542    12.21740952    12.17917775

---------------------------
INTERNAL COORDINATES (A.U.)
---------------------------
 N      0   0   0     0.000000000000     0.00000000     0.00000000
 C      1   0   0     2.597831010722     0.00000000     0.00000000
 C      2   1   0     2.666350960177   120.95003234     0.00000000
 C      2   1   3     2.666353345442   120.94996665   179.96092077
 C      3   2   1     2.633775595223   120.65064114   179.95808038
 C      4   2   1     2.633776892880   120.65059593   180.04204040
 C      6   4   2     2.642830271850   120.97812665     0.00000000
 H      3   2   1     2.067260942737   119.32720089   359.96326928
 H      4   2   1     2.067261513176   119.32746569     0.03675148
 H      5   3   2     2.066473291169   119.07843566   179.99971899
 H      6   4   2     2.066473538950   119.07817209   180.00012780
 H      7   6   4     2.063427916399   120.67890781   180.00213690
 H      1   2   3     1.905754472513   120.87888805   179.59818940
 H      1   2   3     1.905754984241   120.87861236     0.44137183
 O      1   2   3     5.489960464013   101.24291271   271.39728300
 H     15   1   2     1.827170374643   114.90147370   356.78640860
 H     15   1   2     1.827107245696    12.21740952    12.17917775

---------------------
BASIS SET INFORMATION
---------------------
There are 4 groups of distinct atoms

 Group   1 Type N   : 7s4p1d contracted to 3s2p1d pattern {511/31/1}
 Group   2 Type C   : 7s4p1d contracted to 3s2p1d pattern {511/31/1}
 Group   3 Type H   : 4s1p contracted to 2s1p pattern {31/1}
 Group   4 Type O   : 7s4p1d contracted to 3s2p1d pattern {511/31/1}

Atom   0N    basis set group =>   1
Atom   1C    basis set group =>   2
Atom   2C    basis set group =>   2
Atom   3C    basis set group =>   2
Atom   4C    basis set group =>   2
Atom   5C    basis set group =>   2
Atom   6C    basis set group =>   2
Atom   7H    basis set group =>   3
Atom   8H    basis set group =>   3
Atom   9H    basis set group =>   3
Atom  10H    basis set group =>   3
Atom  11H    basis set group =>   3
Atom  12H    basis set group =>   3
Atom  13H    basis set group =>   3
Atom  14O    basis set group =>   4
Atom  15H    basis set group =>   3
Atom  16H    basis set group =>   3
---------------------------------
AUXILIARY/J BASIS SET INFORMATION
---------------------------------
There are 4 groups of distinct atoms

 Group   1 Type N   : 12s5p4d2f1g contracted to 6s4p3d1f1g pattern {711111/2111/211/2/1}
 Group   2 Type C   : 12s5p4d2f1g contracted to 6s4p3d1f1g pattern {711111/2111/211/2/1}
 Group   3 Type H   : 5s2p1d contracted to 3s1p1d pattern {311/2/1}
 Group   4 Type O   : 12s5p4d2f1g contracted to 6s4p3d1f1g pattern {711111/2111/211/2/1}

Atom   0N    basis set group =>   1
Atom   1C    basis set group =>   2
Atom   2C    basis set group =>   2
Atom   3C    basis set group =>   2
Atom   4C    basis set group =>   2
Atom   5C    basis set group =>   2
Atom   6C    basis set group =>   2
Atom   7H    basis set group =>   3
Atom   8H    basis set group =>   3
Atom   9H    basis set group =>   3
Atom  10H    basis set group =>   3
Atom  11H    basis set group =>   3
Atom  12H    basis set group =>   3
Atom  13H    basis set group =>   3
Atom  14O    basis set group =>   4
Atom  15H    basis set group =>   3
Atom  16H    basis set group =>   3
--------------------------------------------------------------------------
By default, for Open MPI 4.0 and later, infiniband ports on a device
are not used by default.  The intent is to use UCX for these devices.
You can override this policy by setting the btl_openib_allow_ib MCA parameter
to true.

  Local host:              psid00
  Local adapter:           mlx5_0
  Local port:              1

--------------------------------------------------------------------------
--------------------------------------------------------------------------
WARNING: There was an error initializing an OpenFabrics device.

  Local host:   psid00
  Local device: mlx5_0
--------------------------------------------------------------------------


           ************************************************************
           *        Program running with 28 parallel MPI-processes    *
           *              working on a common directory               *
           ************************************************************
------------------------------------------------------------------------------
                             ORCA STARTUP CALCULATIONS
                           -- RI-GTO INTEGRALS CHOSEN --
------------------------------------------------------------------------------
------------------------------------------------------------------------------
                   ___                                                        
                  /   \      - P O W E R E D   B Y -                         
                 /     \                                                     
                 |  |  |   _    _      __       _____    __    __             
                 |  |  |  | |  | |    /  \     |  _  \  |  |  /  |          
                  \  \/   | |  | |   /    \    | | | |  |  | /  /          
                 / \  \   | |__| |  /  /\  \   | |_| |  |  |/  /          
                |  |  |   |  __  | /  /__\  \  |    /   |      \           
                |  |  |   | |  | | |   __   |  |    \   |  |\   \          
                \     /   | |  | | |  |  |  |  | |\  \  |  | \   \       
                 \___/    |_|  |_| |__|  |__|  |_| \__\ |__|  \__/        
                                                                              
                      - O R C A' S   B I G   F R I E N D -                    
                                      &                                       
                       - I N T E G R A L  F E E D E R -                       
                                                                              
 v1 FN, 2020, v2 2021, v3 2022-2024                                           
------------------------------------------------------------------------------


----------------------
SHARK INTEGRAL PACKAGE
----------------------

Number of atoms                             ...     17
Number of basis functions                   ...    157
Number of shells                            ...     75
Maximum angular momentum                    ...      2
Integral batch strategy                     ... SHARK/LIBINT Hybrid
RI-J (if used) integral strategy            ... SPLIT-RIJ (Revised 2003 algorithm where possible)
Printlevel                                  ...      1
Contraction scheme used                     ... SEGMENTED contraction
Prescreening option                         ... SCHWARTZ
   Thresh                                   ... 2.500e-11
   Tcut                                     ... 2.500e-12
   Tpresel                                  ... 2.500e-12 
Coulomb Range Separation                    ... NOT USED
Exchange Range Separation                   ... NOT USED
Multipole approximations                    ... NOT USED
Finite Nucleus Model                        ... NOT USED
CABS basis                                  ... NOT available
Auxiliary Coulomb fitting basis             ... AVAILABLE
   # of basis functions in Aux-J            ...    491
   # of shells in Aux-J                     ...    165
   Maximum angular momentum in Aux-J        ...      4
Auxiliary J/K fitting basis                 ... NOT available
Auxiliary Correlation fitting basis         ... NOT available
Auxiliary 'external' fitting basis          ... NOT available

Checking pre-screening integrals            ... done (  0.0 sec) Dimension = 75
Check shell pair data                       ... done (  0.0 sec)
Shell pair information
Shell pair cut-off parameter TPreSel        ...   2.5e-12
Total number of shell pairs                 ...      2850
Shell pairs after pre-screening             ...      2648
Total number of primitive shell pairs       ...     10142
Primitive shell pairs kept                  ...      6873
          la=0 lb=0:    845 shell pairs
          la=1 lb=0:    976 shell pairs
          la=1 lb=1:    302 shell pairs
          la=2 lb=0:    310 shell pairs
          la=2 lb=1:    182 shell pairs
          la=2 lb=2:     33 shell pairs

Calculating one electron integrals          ... done (  0.0 sec)
Calculating RI/J V-Matrix + Cholesky decomp.... done (  0.0 sec)
Calculating Nuclear repulsion               ... done (  0.0 sec) ENN=    345.943686684846 Eh

Diagonalization of the overlap matrix:
Smallest eigenvalue                        ... 2.886e-04
Time for diagonalization                   ...    0.002 sec
Threshold for overlap eigenvalues          ... 1.000e-07
Number of eigenvalues below threshold      ... 0
Time for construction of square roots      ...    0.001 sec
Total time needed                          ...    0.004 sec

-------------------
DFT GRID GENERATION
-------------------

General Integration Accuracy     IntAcc      ... 4.388
Radial Grid Type                 RadialGrid  ... OptM3 with GC (2021)
Angular Grid (max. ang.)         AngularGrid ... 4 (Lebedev-302)
Angular grid pruning method      GridPruning ... 4 (adaptive)
Weight generation scheme         WeightScheme... mBecke (2022)
Basis function cutoff            BFCut       ... 1.0000e-11
Integration weight cutoff        WCut        ... 1.0000e-14
Partially contracted basis set               ... off
Rotationally invariant grid construction     ... off
Angular grids for H and He will be reduced by one unit

Total number of grid points                  ...    77191
Total number of batches                      ...     1214
Average number of points per batch           ...       63
Average number of grid points per atom       ...     4541

--------------------
COSX GRID GENERATION
--------------------

GRIDX 1
-------
General Integration Accuracy     IntAcc      ... 3.816
Radial Grid Type                 RadialGrid  ... OptM3 with GC (2021)
Angular Grid (max. ang.)         AngularGrid ... 1 (Lebedev-50)
Angular grid pruning method      GridPruning ... 4 (adaptive)
Weight generation scheme         WeightScheme... mBecke (2022)
Basis function cutoff            BFCut       ... 1.0000e-11
Integration weight cutoff        WCut        ... 1.0000e-14
Partially contracted basis set               ... on
Rotationally invariant grid construction     ... off
Angular grids for H and He will be reduced by one unit

Total number of grid points                  ...     9906
Total number of batches                      ...       85
Average number of points per batch           ...      116
Average number of grid points per atom       ...      583
UseSFitting                                  ... on

GRIDX 2
-------
General Integration Accuracy     IntAcc      ... 4.020
Radial Grid Type                 RadialGrid  ... OptM3 with GC (2021)
Angular Grid (max. ang.)         AngularGrid ... 2 (Lebedev-110)
Angular grid pruning method      GridPruning ... 4 (adaptive)
Weight generation scheme         WeightScheme... mBecke (2022)
Basis function cutoff            BFCut       ... 1.0000e-11
Integration weight cutoff        WCut        ... 1.0000e-14
Partially contracted basis set               ... on
Rotationally invariant grid construction     ... off
Angular grids for H and He will be reduced by one unit

Total number of grid points                  ...    21247
Total number of batches                      ...      175
Average number of points per batch           ...      121
Average number of grid points per atom       ...     1250
UseSFitting                                  ... on

GRIDX 3
-------
General Integration Accuracy     IntAcc      ... 4.338
Radial Grid Type                 RadialGrid  ... OptM3 with GC (2021)
Angular Grid (max. ang.)         AngularGrid ... 3 (Lebedev-194)
Angular grid pruning method      GridPruning ... 4 (adaptive)
Weight generation scheme         WeightScheme... mBecke (2022)
Basis function cutoff            BFCut       ... 1.0000e-11
Integration weight cutoff        WCut        ... 1.0000e-14
Partially contracted basis set               ... on
Rotationally invariant grid construction     ... off
Angular grids for H and He will be reduced by one unit

Total number of grid points                  ...    46646
Total number of batches                      ...      373
Average number of points per batch           ...      125
Average number of grid points per atom       ...     2744
UseSFitting                                  ... on
Initializing property integral containers    ... done (  0.0 sec)

SHARK setup successfully completed in   0.8 seconds

Maximum memory used throughout the entire STARTUP-calculation: 19.2 MB
[psid00:24506] 27 more processes have sent help message help-mpi-btl-openib.txt / ib port not selected
[psid00:24506] Set MCA parameter "orte_base_help_aggregate" to 0 to see all help / error messages
[psid00:24506] 27 more processes have sent help message help-mpi-btl-openib.txt / error in device init
--------------------------------------------------------------------------
By default, for Open MPI 4.0 and later, infiniband ports on a device
are not used by default.  The intent is to use UCX for these devices.
You can override this policy by setting the btl_openib_allow_ib MCA parameter
to true.

  Local host:              psid00
  Local adapter:           mlx5_0
  Local port:              1

--------------------------------------------------------------------------
--------------------------------------------------------------------------
WARNING: There was an error initializing an OpenFabrics device.

  Local host:   psid00
  Local device: mlx5_0
--------------------------------------------------------------------------


           ************************************************************
           *        Program running with 28 parallel MPI-processes    *
           *              working on a common directory               *
           ************************************************************
-------------------------------------------------------------------------------
                                 ORCA GUESS
                   Start orbitals & Density for SCF / CASSCF
-------------------------------------------------------------------------------

------------
SCF SETTINGS
------------
Hamiltonian:
 Density Functional     Method          .... DFT(GTOs)
 Exchange Functional    Exchange        .... B88
   X-Alpha parameter    XAlpha          ....  0.666667
   Becke's b parameter  XBeta           ....  0.004200
 Correlation Functional Correlation     .... LYP
 LDA part of GGA corr.  LDAOpt          .... VWN-5
 Gradients option       PostSCFGGA      .... off
 Hybrid DFT is turned on
   Fraction HF Exchange ScalHFX         ....  0.200000
   Scaling of DF-GGA-X  ScalDFX         ....  0.720000
   Scaling of DF-GGA-C  ScalDFC         ....  0.810000
   Scaling of DF-LDA-C  ScalLDAC        ....  1.000000
   Perturbative correction              ....  0.000000
   NL short-range parameter             ....  4.800000
 RI-approximation to the Coulomb term is turned on
   Number of AuxJ basis functions       .... 491
   RIJ-COSX (HFX calculated with COS-X)).... on


General Settings:
 Integral files         IntName         .... aniline_water_2_OPT
 Hartree-Fock type      HFTyp           .... RHF
 Total Charge           Charge          ....    0
 Multiplicity           Mult            ....    1
 Number of Electrons    NEL             ....   60
 Basis Dimension        Dim             ....  157
 Nuclear Repulsion      ENuc            ....    345.9436866848 Eh

Convergence Acceleration:
 AO-DIIS                CNVDIIS         .... on
   Start iteration      DIISMaxIt       ....    12
   Startup error        DIISStart       ....  0.200000
   # of expansion vecs  DIISMaxEq       ....     5
   Bias factor          DIISBfac        ....   1.050
   Max. coefficient     DIISMaxC        ....  10.000
 MO-DIIS                CNVKDIIS        .... off
 Trust-Rad. Augm. Hess. CNVTRAH         .... auto
   Auto Start mean grad. ratio tolernc. ....  1.125000
   Auto Start start iteration           ....    50
   Auto Start num. interpolation iter.  ....    10
   Max. Number of Micro iterations      ....    24
   Max. Number of Macro iterations      .... Maxiter - #DIIS iter
   Number of Davidson start vectors     ....     2
   Converg. threshold    (grad. norm)   ....   1.000e-05
   Grad. Scal. Fac. for Micro threshold ....   0.100
   Minimum threshold for Micro iter.    ....   1.000e-02
   NR start threshold (gradient norm)   ....   1.000e-04
   Initial trust radius                 ....   0.400
   Minimum AH scaling param. (alpha)    ....   1.000
   Maximum AH scaling param. (alpha)    .... 1000.000
   Quad. conv. algorithm                .... NR
   White noise on init. David. guess    .... on
   Maximum white noise                  ....   0.010
   Pseudo random numbers                .... off
   Inactive MOs                         .... canonical
   Orbital update algorithm             .... Taylor
   Preconditioner                       .... Diag
   Full preconditioner red. dimension   ....   250
 SOSCF                  CNVSOSCF        .... on
   Start iteration      SOSCFMaxIt      ....   150
   Startup grad/error   SOSCFStart      ....  0.003300
   Hessian update       SOSCFHessUp     .... L-BFGS
 Level Shifting         CNVShift        .... on
   Level shift para.    LevelShift      ....    0.2500
   Turn off err/grad.   ShiftErr        ....    0.0010
 Zerner damping         CNVZerner       .... off
 Static damping         CNVDamp         .... on
   Fraction old density DampFac         ....    0.7000
   Max. Damping (<1)    DampMax         ....    0.9800
   Min. Damping (>=0)   DampMin         ....    0.0000
   Turn off err/grad.   DampErr         ....    0.1000

SCF Procedure:
 Maximum # iterations   MaxIter         ....   125
 SCF integral mode      SCFMode         .... Direct
   Integral package                     .... SHARK and LIBINT hybrid scheme
 Reset frequency        DirectResetFreq ....    20
 Integral Threshold     Thresh          ....  2.500e-11 Eh
 Primitive CutOff       TCut            ....  2.500e-12 Eh

Convergence Tolerance:
 Convergence Check Mode ConvCheckMode   .... Total+1el-Energy
 Convergence forced     ConvForced      .... 0
 Energy Change          TolE            ....  1.000e-08 Eh
 1-El. energy change                    ....  1.000e-05 Eh
 Orbital Gradient       TolG            ....  1.000e-05
 Orbital Rotation angle TolX            ....  1.000e-05
 DIIS Error             TolErr          ....  5.000e-07

------------------------------
INITIAL GUESS: MODEL POTENTIAL
------------------------------
Loading Hartree-Fock densities                     ... done
Calculating cut-offs                               ... done
Initializing the effective Hamiltonian             ... done
Setting up the integral package (SHARK)            ... done
Starting the Coulomb interaction                   ... done (   0.0 sec)
Making the grid                                    ... done (   0.1 sec)
Mapping shells                                     ... done
Starting the XC term evaluation                    ... done (   0.0 sec)
  promolecular density results
     # of electrons  =     59.998101441
     EX              =    -48.285047130
     EC              =     -2.000020597
     EX+EC           =    -50.285067727
Transforming the Hamiltonian                       ... done (   0.0 sec)
Diagonalizing the Hamiltonian                      ... done (   0.0 sec)
Back transforming the eigenvectors                 ... done (   0.0 sec)
Now organizing SCF variables                       ... done
                      ------------------
                      INITIAL GUESS DONE (   0.1 sec)
                      ------------------
             **** ENERGY FILE WAS UPDATED (aniline_water_2_OPT.en.tmp) ****
Finished Guess after   1.0 sec
Maximum memory used throughout the entire GUESS-calculation: 11.1 MB
[psid00:24596] 27 more processes have sent help message help-mpi-btl-openib.txt / ib port not selected
[psid00:24596] Set MCA parameter "orte_base_help_aggregate" to 0 to see all help / error messages
[psid00:24596] 27 more processes have sent help message help-mpi-btl-openib.txt / error in device init
--------------------------------------------------------------------------
By default, for Open MPI 4.0 and later, infiniband ports on a device
are not used by default.  The intent is to use UCX for these devices.
You can override this policy by setting the btl_openib_allow_ib MCA parameter
to true.

  Local host:              psid00
  Local adapter:           mlx5_0
  Local port:              1

--------------------------------------------------------------------------
--------------------------------------------------------------------------
WARNING: There was an error initializing an OpenFabrics device.

  Local host:   psid00
  Local device: mlx5_0
--------------------------------------------------------------------------


           ************************************************************
           *        Program running with 28 parallel MPI-processes    *
           *              working on a common directory               *
           ************************************************************

-------------------------------------------------------------------------------------------
                                      ORCA LEAN-SCF
                              memory conserving SCF solver
-------------------------------------------------------------------------------------------

----------------------------------------D-I-I-S--------------------------------------------
Iteration    Energy (Eh)           Delta-E    RMSDP     MaxDP     DIISErr   Damp  Time(sec)
-------------------------------------------------------------------------------------------
               ***  Starting incremental Fock matrix formation  ***
    1    -363.2636428213754698     0.00e+00  4.33e-03  9.06e-02  3.10e-01  0.700   0.2
    2    -363.3944464576046585    -1.31e-01  2.93e-03  5.02e-02  1.32e-01  0.700   0.2
                               ***Turning on AO-DIIS***
    3    -363.4468102559288809    -5.24e-02  1.25e-03  1.69e-02  4.24e-02  0.700   0.2
    4    -363.4775743181290864    -3.08e-02  2.20e-03  3.50e-02  2.23e-02  0.000   0.2
    5    -363.5447027656749697    -6.71e-02  3.22e-04  6.65e-03  5.90e-03  0.000   0.2
                              *** Initializing SOSCF ***
---------------------------------------S-O-S-C-F--------------------------------------
Iteration    Energy (Eh)           Delta-E    RMSDP     MaxDP     MaxGrad    Time(sec)
--------------------------------------------------------------------------------------
    6    -363.5450334072432952    -3.31e-04  1.29e-04  3.08e-03  2.46e-03     0.2
               *** Restarting incremental Fock matrix formation ***
    7    -363.5450387744987211    -5.37e-06  7.36e-05  1.16e-03  2.66e-04     0.2
    8    -363.5450386601015680     1.14e-07  2.94e-05  5.69e-04  4.07e-04     0.2
    9    -363.5450414907520553    -2.83e-06  1.89e-05  3.39e-04  1.24e-04     0.2
   10    -363.5450413781353518     1.13e-07  9.81e-06  1.93e-04  1.23e-04     0.2
   11    -363.5450416925186801    -3.14e-07  1.97e-06  5.37e-05  1.23e-05     0.2
   12    -363.5450416954830644    -2.96e-09  9.77e-07  3.38e-05  1.42e-05     0.2
                 **** Energy Check signals convergence ****

               *****************************************************
               *                     SUCCESS                       *
               *           SCF CONVERGED AFTER  12 CYCLES          *
               *****************************************************

Recomputing exchange energy using gridx3       ... done (    0.258 sec)
Old exchange energy                            :     -9.818437919 Eh
New exchange energy                            :     -9.818420858 Eh
Exchange energy change after final integration :      0.000017061 Eh
Total energy after final integration           :   -363.545024634 Eh
             **** ENERGY FILE WAS UPDATED (aniline_water_2_OPT.en.tmp) ****

----------------
TOTAL SCF ENERGY
----------------

Total Energy       :       -363.54502463401064 Eh           -9892.56305 eV

Components:
Nuclear Repulsion  :        345.94368668484583 Eh            9413.60629 eV
Electronic Energy  :       -709.48872838032889 Eh          -19306.16981 eV
One Electron Energy:      -1177.73005022991651 Eh          -32047.66394 eV
Two Electron Energy:        468.24132184958762 Eh           12741.49413 eV

Virial components:
Potential Energy   :       -723.51708821935847 Eh          -19687.90088 eV
Kinetic Energy     :        359.97206358534783 Eh            9795.33784 eV
Virial Ratio       :          2.00992566204465

DFT components:
N(Alpha)           :       30.000007178178 electrons
N(Beta)            :       30.000007178178 electrons
N(Total)           :       60.000014356357 electrons
E(X)               :      -38.998294949438 Eh       
E(C)               :       -2.370212666584 Eh       
E(XC)              :      -41.368507616023 Eh       

---------------
SCF CONVERGENCE
---------------

  Last Energy change         ...    2.9644e-09  Tolerance :   1.0000e-08
  Last MAX-Density change    ...    3.3831e-05  Tolerance :   1.0000e-07
  Last RMS-Density change    ...    9.7715e-07  Tolerance :   5.0000e-09
  Last DIIS Error            ...    2.4565e-03  Tolerance :   5.0000e-07
  Last Orbital Gradient      ...    1.4152e-05  Tolerance :   1.0000e-05
  Last Orbital Rotation      ...    1.4539e-05  Tolerance :   1.0000e-05


----------------
ORBITAL ENERGIES
----------------

  NO   OCC          E(Eh)            E(eV) 
   0   2.0000     -19.093105      -519.5498 
   1   2.0000     -14.349210      -390.4618 
   2   2.0000     -10.234751      -278.5017 
   3   2.0000     -10.188260      -277.2366 
   4   2.0000     -10.188229      -277.2358 
   5   2.0000     -10.184243      -277.1273 
   6   2.0000     -10.184181      -277.1257 
   7   2.0000     -10.177389      -276.9408 
   8   2.0000      -0.957048       -26.0426 
   9   2.0000      -0.922622       -25.1058 
  10   2.0000      -0.829445       -22.5703 
  11   2.0000      -0.736002       -20.0276 
  12   2.0000      -0.720327       -19.6011 
  13   2.0000      -0.610773       -16.6200 
  14   2.0000      -0.600855       -16.3501 
  15   2.0000      -0.531245       -14.4559 
  16   2.0000      -0.526034       -14.3141 
  17   2.0000      -0.492381       -13.3984 
  18   2.0000      -0.480030       -13.0623 
  19   2.0000      -0.434716       -11.8292 
  20   2.0000      -0.432658       -11.7732 
  21   2.0000      -0.418176       -11.3791 
  22   2.0000      -0.394147       -10.7253 
  23   2.0000      -0.360824        -9.8185 
  24   2.0000      -0.347210        -9.4481 
  25   2.0000      -0.342697        -9.3253 
  26   2.0000      -0.315851        -8.5948 
  27   2.0000      -0.270313        -7.3556 
  28   2.0000      -0.253837        -6.9072 
  29   2.0000      -0.209437        -5.6991 
  30   0.0000      -0.006213        -0.1691 
  31   0.0000       0.010183         0.2771 
  32   0.0000       0.044791         1.2188 
  33   0.0000       0.068055         1.8519 
  34   0.0000       0.081629         2.2212 
  35   0.0000       0.087032         2.3683 
  36   0.0000       0.118768         3.2318 
  37   0.0000       0.120381         3.2757 
  38   0.0000       0.155187         4.2229 
  39   0.0000       0.155388         4.2283 
  40   0.0000       0.157446         4.2843 
*Only the first 10 virtual orbitals were printed.

                    ********************************
                    * MULLIKEN POPULATION ANALYSIS *
                    ********************************

-----------------------
MULLIKEN ATOMIC CHARGES
-----------------------
   0 N :   -0.091720
   1 C :    0.053499
   2 C :   -0.023590
   3 C :   -0.022494
   4 C :    0.017075
   5 C :    0.016953
   6 C :    0.011590
   7 H :   -0.043297
   8 H :   -0.043304
   9 H :   -0.018890
  10 H :   -0.018968
  11 H :   -0.023838
  12 H :    0.121809
  13 H :    0.122713
  14 O :   -0.314084
  15 H :    0.146555
  16 H :    0.109991
Sum of atomic charges:   -0.0000000

--------------------------------
MULLIKEN REDUCED ORBITAL CHARGES
--------------------------------
  0 N s       :     3.302400  s :     3.302400
      pz      :     1.733020  p :     3.774028
      px      :     1.043442
      py      :     0.997566
      dz2     :     0.001874  d :     0.015292
      dxz     :     0.002669
      dyz     :     0.000037
      dx2y2   :     0.004283
      dxy     :     0.006428

  1 C s       :     2.990015  s :     2.990015
      pz      :     0.959297  p :     2.894634
      px      :     0.887430
      py      :     1.047908
      dz2     :     0.004315  d :     0.061851
      dxz     :     0.016426
      dyz     :     0.006698
      dx2y2   :     0.019518
      dxy     :     0.014893

  2 C s       :     3.217798  s :     3.217798
      pz      :     1.071658  p :     2.773412
      px      :     0.873896
      py      :     0.827859
      dz2     :     0.002620  d :     0.032379
      dxz     :     0.005092
      dyz     :     0.002938
      dx2y2   :     0.009199
      dxy     :     0.012530

  3 C s       :     3.217642  s :     3.217642
      pz      :     1.070461  p :     2.772471
      px      :     0.873829
      py      :     0.828181
      dz2     :     0.002621  d :     0.032381
      dxz     :     0.005093
      dyz     :     0.002937
      dx2y2   :     0.009204
      dxy     :     0.012525

  4 C s       :     3.162911  s :     3.162911
      pz      :     0.971825  p :     2.784012
      px      :     0.937279
      py      :     0.874907
      dz2     :     0.002539  d :     0.036003
      dxz     :     0.006629
      dyz     :     0.003483
      dx2y2   :     0.011366
      dxy     :     0.011986

  5 C s       :     3.162901  s :     3.162901
      pz      :     0.972029  p :     2.784142
      px      :     0.937216
      py      :     0.874898
      dz2     :     0.002539  d :     0.036003
      dxz     :     0.006627
      dyz     :     0.003483
      dx2y2   :     0.011364
      dxy     :     0.011990

  6 C s       :     3.153396  s :     3.153396
      pz      :     1.038663  p :     2.800863
      px      :     0.810690
      py      :     0.951510
      dz2     :     0.002523  d :     0.034152
      dxz     :     0.002392
      dyz     :     0.005854
      dx2y2   :     0.012604
      dxy     :     0.010779

  7 H s       :     1.020332  s :     1.020332
      pz      :     0.005305  p :     0.022966
      px      :     0.005776
      py      :     0.011886

  8 H s       :     1.020332  s :     1.020332
      pz      :     0.005312  p :     0.022973
      px      :     0.005779
      py      :     0.011882

  9 H s       :     0.996133  s :     0.996133
      pz      :     0.004635  p :     0.022758
      px      :     0.006205
      py      :     0.011918

 10 H s       :     0.996211  s :     0.996211
      pz      :     0.004634  p :     0.022757
      px      :     0.006206
      py      :     0.011916

 11 H s       :     1.000919  s :     1.000919
      pz      :     0.005135  p :     0.022919
      px      :     0.014590
      py      :     0.003193

 12 H s       :     0.832944  s :     0.832944
      pz      :     0.013408  p :     0.045247
      px      :     0.011719
      py      :     0.020120

 13 H s       :     0.831851  s :     0.831851
      pz      :     0.013588  p :     0.045435
      px      :     0.011741
      py      :     0.020106

 14 O s       :     3.664630  s :     3.664630
      pz      :     1.206598  p :     4.638894
      px      :     1.478518
      py      :     1.953778
      dz2     :     0.001371  d :     0.010560
      dxz     :     0.005438
      dyz     :     0.000085
      dx2y2   :     0.002598
      dxy     :     0.001068

 15 H s       :     0.783551  s :     0.783551
      pz      :     0.023662  p :     0.069893
      px      :     0.026822
      py      :     0.019410

 16 H s       :     0.815705  s :     0.815705
      pz      :     0.036471  p :     0.074305
      px      :     0.018469
      py      :     0.019365



                     *******************************
                     * LOEWDIN POPULATION ANALYSIS *
                     *******************************

----------------------
LOEWDIN ATOMIC CHARGES
----------------------
   0 N :    0.000981
   1 C :    0.015522
   2 C :   -0.071089
   3 C :   -0.070345
   4 C :   -0.013950
   5 C :   -0.014027
   6 C :   -0.060912
   7 H :    0.020929
   8 H :    0.021018
   9 H :    0.027190
  10 H :    0.027164
  11 H :    0.023856
  12 H :    0.076316
  13 H :    0.075874
  14 O :   -0.166162
  15 H :    0.073044
  16 H :    0.034589

-------------------------------
LOEWDIN REDUCED ORBITAL CHARGES
-------------------------------
  0 N s       :     3.019294  s :     3.019294
      pz      :     1.651438  p :     3.938128
      px      :     1.140108
      py      :     1.146582
      dz2     :     0.003103  d :     0.041596
      dxz     :     0.005195
      dyz     :     0.000043
      dx2y2   :     0.013571
      dxy     :     0.019685

  1 C s       :     2.836918  s :     2.836918
      pz      :     0.945628  p :     2.999150
      px      :     0.953910
      py      :     1.099611
      dz2     :     0.009571  d :     0.148410
      dxz     :     0.034644
      dyz     :     0.013745
      dx2y2   :     0.051138
      dxy     :     0.039313

  2 C s       :     2.859871  s :     2.859871
      pz      :     1.051304  p :     3.124891
      px      :     1.053799
      py      :     1.019788
      dz2     :     0.006268  d :     0.086328
      dxz     :     0.010621
      dyz     :     0.005535
      dx2y2   :     0.028124
      dxy     :     0.035781

  3 C s       :     2.859854  s :     2.859854
      pz      :     1.050630  p :     3.124172
      px      :     1.053710
      py      :     1.019831
      dz2     :     0.006268  d :     0.086319
      dxz     :     0.010619
      dyz     :     0.005533
      dx2y2   :     0.028136
      dxy     :     0.035764

  4 C s       :     2.861399  s :     2.861399
      pz      :     0.955111  p :     3.060129
      px      :     1.059021
      py      :     1.045996
      dz2     :     0.006086  d :     0.092422
      dxz     :     0.014144
      dyz     :     0.006725
      dx2y2   :     0.032030
      dxy     :     0.033436

  5 C s       :     2.861412  s :     2.861412
      pz      :     0.955175  p :     3.060206
      px      :     1.059046
      py      :     1.045985
      dz2     :     0.006086  d :     0.092409
      dxz     :     0.014125
      dyz     :     0.006726
      dx2y2   :     0.032026
      dxy     :     0.033445

  6 C s       :     2.858833  s :     2.858833
      pz      :     1.019819  p :     3.113051
      px      :     1.032546
      py      :     1.060686
      dz2     :     0.006194  d :     0.089029
      dxz     :     0.004025
      dyz     :     0.012614
      dx2y2   :     0.035051
      dxy     :     0.031145

  7 H s       :     0.911197  s :     0.911197
      pz      :     0.016293  p :     0.067873
      px      :     0.017394
      py      :     0.034186

  8 H s       :     0.911128  s :     0.911128
      pz      :     0.016275  p :     0.067853
      px      :     0.017397
      py      :     0.034181

  9 H s       :     0.906989  s :     0.906989
      pz      :     0.013716  p :     0.065822
      px      :     0.018037
      py      :     0.034069

 10 H s       :     0.907016  s :     0.907016
      pz      :     0.013716  p :     0.065820
      px      :     0.018041
      py      :     0.034062

 11 H s       :     0.908718  s :     0.908718
      pz      :     0.015706  p :     0.067426
      px      :     0.040982
      py      :     0.010737

 12 H s       :     0.797863  s :     0.797863
      pz      :     0.043737  p :     0.125820
      px      :     0.028955
      py      :     0.053129

 13 H s       :     0.797933  s :     0.797933
      pz      :     0.044082  p :     0.126192
      px      :     0.029003
      py      :     0.053107

 14 O s       :     3.428759  s :     3.428759
      pz      :     1.281440  p :     4.718028
      px      :     1.549042
      py      :     1.887545
      dz2     :     0.003963  d :     0.019376
      dxz     :     0.011040
      dyz     :     0.000040
      dx2y2   :     0.004005
      dxy     :     0.000328

 15 H s       :     0.751458  s :     0.751458
      pz      :     0.046332  p :     0.175497
      px      :     0.075722
      py      :     0.053443

 16 H s       :     0.764659  s :     0.764659
      pz      :     0.098200  p :     0.200752
      px      :     0.048417
      py      :     0.054135



                      *****************************
                      * MAYER POPULATION ANALYSIS *
                      *****************************

  NA   - Mulliken gross atomic population
  ZA   - Total nuclear charge
  QA   - Mulliken gross atomic charge
  VA   - Mayer's total valence
  BVA  - Mayer's bonded valence
  FA   - Mayer's free valence

  ATOM       NA         ZA         QA         VA         BVA        FA
  0 N      7.0917     7.0000    -0.0917     3.2152     3.2152    -0.0000
  1 C      5.9465     6.0000     0.0535     4.0543     4.0543    -0.0000
  2 C      6.0236     6.0000    -0.0236     3.7945     3.7945    -0.0000
  3 C      6.0225     6.0000    -0.0225     3.7946     3.7946    -0.0000
  4 C      5.9829     6.0000     0.0171     3.8692     3.8692     0.0000
  5 C      5.9830     6.0000     0.0170     3.8692     3.8692    -0.0000
  6 C      5.9884     6.0000     0.0116     3.8114     3.8114     0.0000
  7 H      1.0433     1.0000    -0.0433     0.9857     0.9857     0.0000
  8 H      1.0433     1.0000    -0.0433     0.9856     0.9856    -0.0000
  9 H      1.0189     1.0000    -0.0189     0.9769     0.9769     0.0000
 10 H      1.0190     1.0000    -0.0190     0.9769     0.9769    -0.0000
 11 H      1.0238     1.0000    -0.0238     0.9780     0.9780    -0.0000
 12 H      0.8782     1.0000     0.1218     1.0037     1.0037    -0.0000
 13 H      0.8773     1.0000     0.1227     1.0021     1.0021    -0.0000
 14 O      8.3141     8.0000    -0.3141     2.0108     2.0108    -0.0000
 15 H      0.8534     1.0000     0.1466     1.0108     1.0108    -0.0000
 16 H      0.8900     1.0000     0.1100     1.1012     1.1012     0.0000

  Mayer bond orders larger than 0.100000
B(  0-N ,  1-C ) :   1.1762 B(  0-N , 12-H ) :   0.9465 B(  0-N , 13-H ) :   0.9461 
B(  0-N , 16-H ) :   0.1103 B(  1-C ,  2-C ) :   1.3347 B(  1-C ,  3-C ) :   1.3354 
B(  2-C ,  4-C ) :   1.4022 B(  2-C ,  7-H ) :   0.9841 B(  3-C ,  5-C ) :   1.4024 
B(  3-C ,  8-H ) :   0.9842 B(  4-C ,  6-C ) :   1.3736 B(  4-C ,  9-H ) :   0.9782 
B(  5-C ,  6-C ) :   1.3733 B(  5-C , 10-H ) :   0.9782 B(  6-C , 11-H ) :   0.9874 
B( 14-O , 15-H ) :   1.0049 B( 14-O , 16-H ) :   0.9781 

-------
TIMINGS
-------

Total SCF time: 0 days 0 hours 0 min 3 sec 

Total time                  ....       3.334 sec
Sum of individual times     ....       3.300 sec  ( 99.0%)

SCF preparation             ....       0.928 sec  ( 27.8%)
Fock matrix formation       ....       2.161 sec  ( 64.8%)
  Startup                   ....       0.013 sec  (  0.6% of F)
  Split-RI-J                ....       0.230 sec  ( 10.6% of F)
  Chain of spheres X        ....       1.351 sec  ( 62.5% of F)
  XC integration            ....       0.501 sec  ( 23.2% of F)
    XC Preparation          ....       0.000 sec  (  0.0% of XC)
    Basis function eval.    ....       0.118 sec  ( 23.5% of XC)
    Density eval.           ....       0.044 sec  (  8.9% of XC)
    XC-Functional eval.     ....       0.030 sec  (  6.1% of XC)
    XC-Potential eval.      ....       0.067 sec  ( 13.4% of XC)
Diagonalization             ....       0.000 sec  (  0.0%)
Density matrix formation    ....       0.024 sec  (  0.7%)
Total Energy calculation    ....       0.021 sec  (  0.6%)
Population analysis         ....       0.018 sec  (  0.5%)
Orbital Transformation      ....       0.018 sec  (  0.5%)
Orbital Orthonormalization  ....       0.000 sec  (  0.0%)
DIIS solution               ....       0.086 sec  (  2.6%)
SOSCF solution              ....       0.045 sec  (  1.4%)
Finished LeanSCF after   3.4 sec

Maximum memory used throughout the entire LEANSCF-calculation: 16.4 MB
[psid00:24685] 27 more processes have sent help message help-mpi-btl-openib.txt / ib port not selected
[psid00:24685] Set MCA parameter "orte_base_help_aggregate" to 0 to see all help / error messages
[psid00:24685] 27 more processes have sent help message help-mpi-btl-openib.txt / error in device init


-------------------------------------------------------------------------------
                          DFT DISPERSION CORRECTION                            
                                                                               
                              DFTD3 V3.1  Rev 1                                
                          USING Becke-Johnson damping                          
-------------------------------------------------------------------------------
The B3LYP functional is recognized
Active option DFTDOPT                   ...         4   

molecular C6(AA) [au] = 2812.508895 


            DFT-D V3
 parameters
 s6 scaling factor         :     1.0000 
 a1 scaling factor         :     0.3981 
 s8 scaling factor         :     1.9889 
 a2 scaling factor         :     4.4211 
 ad hoc parameters k1-k3   :    16.0000     1.3333    -4.0000 

 Edisp/kcal,au: -16.486841020356  -0.026273450750 
 E6   /kcal   :  -7.839597209 
 E8   /kcal   :  -8.647243811 
 % E8         :  52.449367349 

-------------------------   ----------------
Dispersion correction           -0.026273451
-------------------------   ----------------


-------------------------   --------------------
FINAL SINGLE POINT ENERGY      -363.571298084760
-------------------------   --------------------

--------------------------------------------------------------------------
By default, for Open MPI 4.0 and later, infiniband ports on a device
are not used by default.  The intent is to use UCX for these devices.
You can override this policy by setting the btl_openib_allow_ib MCA parameter
to true.

  Local host:              psid00
  Local adapter:           mlx5_0
  Local port:              1

--------------------------------------------------------------------------
--------------------------------------------------------------------------
WARNING: There was an error initializing an OpenFabrics device.

  Local host:   psid00
  Local device: mlx5_0
--------------------------------------------------------------------------


           ************************************************************
           *        Program running with 28 parallel MPI-processes    *
           *              working on a common directory               *
           ************************************************************
------------------------------------------------------------------------------
                         ORCA SCF GRADIENT CALCULATION
------------------------------------------------------------------------------

Nuc. rep. gradient        (SHARK) ... done (  0.0 sec)
HCore & Overlap gradient  (SHARK) ... done (  0.0 sec)
Split-RIJ-J gradient      (SHARK) ... done (  0.1 sec)
COSX-gradient                     ... done (  0.8 sec)
XC gradient                       ... done (  0.2 sec)
Dispersion correction             ... done (  0.1 sec)

-------------------
DISPERSION GRADIENT
-------------------

   1   N   :   -0.000571027   -0.000004153   -0.000195849
   2   C   :   -0.000290647   -0.000005468   -0.000226870
   3   C   :    0.000081230    0.000553305   -0.000145184
   4   C   :    0.000075051   -0.000558441   -0.000138566
   5   C   :    0.000400715    0.000445502   -0.000032967
   6   C   :    0.000397817   -0.000446314   -0.000031124
   7   C   :    0.000559626   -0.000000389   -0.000016088
   8   H   :   -0.000062175    0.000368691   -0.000044244
   9   H   :   -0.000066102   -0.000366615   -0.000039197
  10   H   :    0.000170769    0.000278942   -0.000003361
  11   H   :    0.000170371   -0.000278864   -0.000003109
  12   H   :    0.000317447   -0.000000004   -0.000001396
  13   H   :   -0.000290041   -0.000109970   -0.000102605
  14   H   :   -0.000289850    0.000104451   -0.000101713
  15   O   :   -0.000260077    0.000009076    0.000509695
  16   H   :   -0.000079249    0.000001889    0.000295834
  17   H   :   -0.000263858    0.000008362    0.000276743

Difference to translation invariance:
           :    0.0000000000    0.0000000000    0.0000000000

Difference to rotation invariance:
           :    0.0000000000   -0.0000000000    0.0000000000

Norm of the Dispersion gradient    ...    0.0018918665
RMS gradient                       ...    0.0002649143
MAX gradient                       ...    0.0005710272

------------------
CARTESIAN GRADIENT
------------------

   1   N   :    0.003342014   -0.000362119   -0.002894605
   2   C   :   -0.010811309    0.000088284    0.003100857
   3   C   :    0.001991207    0.000914562   -0.000318299
   4   C   :    0.002038228   -0.000927106   -0.000266428
   5   C   :   -0.000908641    0.000021461   -0.000295128
   6   C   :   -0.000902574   -0.000040065   -0.000259971
   7   C   :    0.001091837    0.000002732    0.000000028
   8   H   :   -0.000011391    0.000040167    0.000062060
   9   H   :   -0.000008969   -0.000073435    0.000059622
  10   H   :    0.000172449    0.000075566    0.000037576
  11   H   :    0.000170525   -0.000075138    0.000035910
  12   H   :    0.000071040   -0.000002430    0.000034539
  13   H   :    0.001303300    0.000596004    0.001242718
  14   H   :    0.001340648   -0.000720152    0.002272428
  15   O   :   -0.000504944   -0.000242025   -0.006059349
  16   H   :    0.000682831   -0.000013760   -0.000178379
  17   H   :    0.000943750    0.000717453    0.003426421

Difference to translation invariance:
           :   -0.0000000000   -0.0000000000    0.0000000000

Difference to rotation invariance:
           :    0.0000249213    0.0000953003    0.0000083407

Norm of the Cartesian gradient     ...    0.0148663438
RMS gradient                       ...    0.0020817045
MAX gradient                       ...    0.0108113090

-------
TIMINGS
-------

Total SCF gradient time     ....        1.167 sec

Densities                   ....       0.000 sec  (  0.0%)
One electron gradient       ....       0.017 sec  (  1.5%)
RI-J Coulomb gradient       ....       0.136 sec  ( 11.7%)
COSX gradient               ....       0.785 sec  ( 67.3%)
XC gradient                 ....       0.174 sec  ( 14.9%)

Maximum memory used throughout the entire SCFGRAD-calculation: 29.1 MB
[psid00:24777] 27 more processes have sent help message help-mpi-btl-openib.txt / ib port not selected
[psid00:24777] Set MCA parameter "orte_base_help_aggregate" to 0 to see all help / error messages
[psid00:24777] 27 more processes have sent help message help-mpi-btl-openib.txt / error in device init
------------------------------------------------------------------------------
                         ORCA GEOMETRY RELAXATION STEP
------------------------------------------------------------------------------

Reading the OPT-File                    .... done
Getting information on internals        .... done
Copying old internal coords+grads       .... done
Making the new internal coordinates     .... (2022 redundants) done
Validating the new internal coordinates .... (2022 redundants) done
Calculating the B-matrix                .... done
Calculating the G,G- and P matrices     .... done
Transforming gradient to internals      .... done
Projecting the internal gradient        .... done
Number of atoms                         ....  17
Number of internal coordinates          .... 120
Current Energy                          ....  -363.571298085 Eh
Current gradient norm                   ....     0.014866344 Eh/bohr
Maximum allowed component of the step   ....  0.300
Current trust radius                    ....  0.300
Evaluating the initial hessian          ....  (Almloef) done
Projecting the Hessian                  .... done
Forming the augmented Hessian           .... done
Diagonalizing the augmented Hessian     .... done
Last element of RFO vector              ....  0.989790593
Lowest eigenvalues of augmented Hessian:
 -0.000462012  0.012264250  0.025028643  0.025302613  0.025469800
Length of the computed step             ....  0.143999383
The final length of the internal step   ....  0.143999383
Converting the step to Cartesian space:
 Initial RMS(Int)=    0.0131452850
Transforming coordinates:
 Iter   0:  RMS(Cart)=    0.0167211992 RMS(Int)=    0.5737167052
done
Storing new coordinates                 .... done

                                .--------------------.
          ----------------------|Geometry convergence|-------------------------
          Item                value                   Tolerance       Converged
          ---------------------------------------------------------------------
          RMS gradient        0.0008309727            0.0001000000      NO
          MAX gradient        0.0058007284            0.0003000000      NO
          RMS step            0.0131452850            0.0020000000      NO
          MAX step            0.0710387130            0.0040000000      NO
          ........................................................
          Max(Bonds)      0.0376      Max(Angles)    0.71
          Max(Dihed)        0.54      Max(Improp)    0.00
          ---------------------------------------------------------------------

The optimization has not yet converged - more geometry cycles are needed


    ---------------------------------------------------------------------------
                         Redundant Internal Coordinates
                            (Angstroem and degrees)

        Definition                    Value    dE/dq     Step     New-Value
    ----------------------------------------------------------------------------
     1. B(C   1,N   0)                1.3747 -0.004622  0.0069    1.3816   
     2. B(C   2,C   1)                1.4110  0.001729 -0.0017    1.4093   
     3. B(C   3,C   1)                1.4110  0.001805 -0.0017    1.4092   
     4. B(C   4,C   2)                1.3937 -0.000147  0.0001    1.3939   
     5. B(C   5,C   3)                1.3937 -0.000156  0.0001    1.3939   
     6. B(C   6,C   5)                1.3985  0.000410 -0.0003    1.3982   
     7. B(C   6,C   4)                1.3985  0.000417 -0.0003    1.3982   
     8. B(H   7,C   2)                1.0939  0.000040 -0.0001    1.0939   
     9. B(H   8,C   3)                1.0939  0.000068 -0.0001    1.0938   
    10. B(H   9,C   4)                1.0935  0.000150 -0.0002    1.0933   
    11. B(H  10,C   5)                1.0935  0.000149 -0.0002    1.0933   
    12. B(H  11,C   6)                1.0919  0.000071 -0.0001    1.0918   
    13. B(H  12,N   0)                1.0085 -0.000654  0.0027    1.0112   
    14. B(H  13,N   0)                1.0085 -0.000628  0.0029    1.0113   
    15. B(H  15,O  14)                0.9669  0.000444 -0.0005    0.9664   
[...]
Current gradient norm                   ....     0.010374868 Eh/bohr
Maximum allowed component of the step   ....  0.300
Current trust radius                    ....  0.467
Updating the Hessian (BFGS)             .... done
Forming the augmented Hessian           .... done
Diagonalizing the augmented Hessian     .... done
Last element of RFO vector              ....  0.860008612
Lowest eigenvalues of augmented Hessian:
 -0.000211331  0.000078376  0.000606418  0.001539981  0.002160447
Length of the computed step             ....  0.593342335
Warning: the length of the step is outside the trust region - taking restricted step instead
The input lambda is                     ....    -0.000996
   iter:   5  x=    1.532849  g=    0.140640 f(x)=    -0.216634
   iter:  10  x=-7128339558924124242813668264193066207230946395791333758551734835375767552.000000  g=   -0.000000 f(x)=    -0.217778
The lambda equations have not converged!
Evaluating lambda by bisection method.
   iter   5 best     0.012459 lambda    -0.156246
   iter  10 best     0.041984 lambda    -0.004879
   iter  15 best     0.283313 lambda    -0.000454
   iter  20 best     0.414280 lambda    -0.000306
   iter  25 best     0.420430 lambda    -0.000301
   iter  30 best     0.420626 lambda    -0.000301
   iter  35 best     0.420632 lambda    -0.000301
   iter  40 best     0.420632 lambda    -0.000301
   iter  45 best     0.420632 lambda    -0.000301
The output lambda is                    ....    -0.000301
The ideal lambda was not found, but a reduced step is possible.
The final length of the internal step   ....  0.420631857
Converting the step to Cartesian space:
 Initial RMS(Int)=    0.0383982595
Transforming coordinates:
 Iter   0:  RMS(Cart)=    0.0199694748 RMS(Int)=    0.0109634437
done
Storing new coordinates                 .... done
The predicted energy change is          ....    -0.000121104
Previously predicted energy change      ....    -0.000055647
Actually observed energy change         ....     0.000011781
Ratio of predicted to observed change   ....     0.211702079
New trust radius                        ....     0.311111111

                                .--------------------.
          ----------------------|Geometry convergence|-------------------------
          Item                value                   Tolerance       Converged
          ---------------------------------------------------------------------
          Energy change       0.0000117807            0.0000050000      NO
          RMS gradient        0.0006653563            0.0001000000      NO
          MAX gradient        0.0037482776            0.0003000000      NO
          RMS step            0.0383982595            0.0020000000      NO
          MAX step            0.1787325647            0.0040000000      NO
          ........................................................
          Max(Bonds)      0.0126      Max(Angles)   10.24
          Max(Dihed)        9.11      Max(Improp)    0.00
          ---------------------------------------------------------------------

The optimization has not yet converged - more geometry cycles are needed


    ---------------------------------------------------------------------------
                         Redundant Internal Coordinates
                            (Angstroem and degrees)

        Definition                    Value    dE/dq     Step     New-Value
    ----------------------------------------------------------------------------
     1. B(C   1,N   0)                1.3977 -0.003601 -0.0050    1.3927   
     2. B(C   2,C   1)                1.4064  0.001856 -0.0005    1.4059   
     3. B(C   3,C   1)                1.4050 -0.001647  0.0004    1.4054   
     4. B(C   4,C   2)                1.3952 -0.000482  0.0004    1.3956   
     5. B(C   5,C   3)                1.3949  0.000150  0.0003    1.3951   
     6. B(C   6,C   5)                1.3984  0.000116 -0.0005    1.3980   
     7. B(C   6,C   4)                1.3979  0.000222 -0.0002    1.3977   
     8. B(H   7,C   2)                1.0940  0.000042 -0.0001    1.0938   
     9. B(H   8,C   3)                1.0930  0.000119 -0.0002    1.0928   
    10. B(H   9,C   4)                1.0931  0.000030 -0.0000    1.0931   
    11. B(H  10,C   5)                1.0930 -0.000130  0.0001    1.0931   
    12. B(H  11,C   6)                1.0920 -0.000037  0.0001    1.0921   
    13. B(H  12,N   0)                1.0222  0.003748  0.0125    1.0347   
    14. B(H  13,N   0)                1.0188  0.001863 -0.0061    1.0127   
    15. B(H  15,O  14)                0.9662  0.000274  0.0000    0.9663   
    16. B(H  16,C   1)                2.4956 -0.001076  0.0126    2.5082   
    17. B(H  16,H  12)                2.4381  0.000866 -0.0116    2.4265   
    18. B(H  16,H  13)                2.7258  0.000618  0.0011    2.7269   
    19. B(H  16,N   0)                2.0335 -0.000669 -0.0046    2.0289   
    20. B(H  16,O  14)                0.9736  0.000844 -0.0008    0.9728   
    21. A(H  13,N   0,H  16)          123.00 -0.000166    0.56    123.56   
    22. A(H  12,N   0,H  16)          100.59 -0.000424   -1.16     99.43   
    23. A(C   1,N   0,H  16)           91.40  0.000728    0.48     91.88   
    24. A(C   1,N   0,H  13)          114.27 -0.000588   -0.45    113.82   
    25. A(H  12,N   0,H  13)          111.68  0.000737    0.83    112.51   
    26. A(C   1,N   0,H  12)          114.13 -0.000360    0.36    114.49   
    27. A(C   2,C   1,H  16)          122.92  0.000304    0.34    123.26   
    28. A(C   3,C   1,H  16)           89.79 -0.000527    0.10     89.89   
    29. A(N   0,C   1,H  16)           54.55  0.000051   -0.38     54.17   
    30. A(N   0,C   1,C   2)          121.50  0.000505   -2.75    118.75   
    31. A(C   2,C   1,C   3)          118.87  0.000231   -0.01    118.86   
    32. A(N   0,C   1,C   3)          119.52 -0.000729    2.75    122.26   
    33. A(C   4,C   2,H   7)          120.08 -0.000081   -0.12    119.96   
    34. A(C   1,C   2,H   7)          119.48  0.000013    0.14    119.61   
    35. A(C   1,C   2,C   4)          120.45  0.000068   -0.02    120.43   
    36. A(C   5,C   3,H   8)          120.35  0.000254    0.00    120.35   
    37. A(C   1,C   3,H   8)          119.39  0.000076   -0.02    119.37   
    38. A(C   1,C   3,C   5)          120.25 -0.000328    0.02    120.26   
    39. A(C   6,C   4,H   9)          120.06  0.000123    0.09    120.14   
    40. A(C   2,C   4,C   6)          120.56 -0.000495    0.02    120.58   
    41. A(C   2,C   4,H   9)          119.38  0.000373   -0.11    119.27   
    42. A(C   3,C   5,H  10)          119.24 -0.000226    0.00    119.24   
    43. A(C   3,C   5,C   6)          120.79  0.000431   -0.02    120.78   
    44. A(C   6,C   5,H  10)          119.97 -0.000204    0.02    119.99   
    45. A(C   5,C   6,H  11)          120.46 -0.000026   -0.00    120.45   
    46. A(C   4,C   6,H  11)          120.47 -0.000068   -0.01    120.46   
    47. A(C   4,C   6,C   5)          119.08  0.000094    0.01    119.08   
    48. A(N   0,H  12,H  16)           55.07 -0.000405    0.59     55.66   
    49. A(N   0,H  13,H  16)           38.73 -0.000149   -0.39     38.34   
    50. A(H  15,O  14,H  16)          102.29 -0.000138    0.04    102.33   
    51. A(H  12,H  16,O  14)          149.83 -0.000911   10.24    160.07   
    52. A(N   0,H  16,H  13)           18.27  0.000315   -0.17     18.10   
    53. A(H  13,H  16,O  14)          167.53 -0.000308   -2.26    165.27   
    54. A(N   0,H  16,O  14)          159.93 -0.000401   -2.84    157.09   
    55. A(C   1,H  16,H  12)           48.86 -0.000137    0.42     49.28   
    56. A(C   1,H  16,H  13)           45.73 -0.000542   -0.23     45.50   
    57. A(N   0,H  16,C   1)           34.05 -0.000779   -0.10     33.95   
    58. A(C   1,H  16,O  14)          126.82  0.000383   -1.97    124.84   
    59. A(H  12,H  16,H  13)           37.66  0.001102    0.37     38.03   
    60. A(N   0,H  16,H  12)           24.34  0.000829    0.57     24.91   
    61. D(C   3,C   1,N   0,H  16)     65.90 -0.000014   -2.57     63.34   
    62. D(C   3,C   1,N   0,H  13)   -166.60 -0.000000   -1.91   -168.51   
    63. D(C   2,C   1,N   0,H  13)     17.24 -0.000129   -1.45     15.79   
    64. D(C   3,C   1,N   0,H  12)    -36.36  0.000160   -1.04    -37.40   
    65. D(C   2,C   1,N   0,H  16)   -110.25 -0.000142   -2.11   -112.36   
    66. D(C   2,C   1,N   0,H  12)    147.48  0.000031   -0.57    146.91   
    67. D(H   7,C   2,C   1,C   3)   -179.68 -0.000021    0.05   -179.63   
    68. D(C   4,C   2,C   1,H  16)    110.76 -0.000282   -0.03    110.73   
    69. D(C   4,C   2,C   1,N   0)    176.32  0.000115   -0.30    176.03   
    70. D(C   4,C   2,C   1,C   3)      0.14  0.000024    0.06      0.20   
    71. D(H   7,C   2,C   1,N   0)     -3.49  0.000071   -0.31     -3.80   
    72. D(C   5,C   3,C   1,H  16)   -128.62 -0.000073   -0.34   -128.96   
    73. D(C   5,C   3,C   1,C   2)     -0.40  0.000028   -0.12     -0.52   
    74. D(C   5,C   3,C   1,N   0)   -176.66 -0.000109    0.44   -176.22   
    75. D(H   8,C   3,C   1,C   2)    178.20  0.000082   -0.25    177.95   
    76. D(H   8,C   3,C   1,N   0)      1.94 -0.000055    0.31      2.25   
    77. D(H   9,C   4,C   2,H   7)     -0.24  0.000014    0.02     -0.22   
    78. D(H   9,C   4,C   2,C   1)    179.94 -0.000031    0.01    179.96   
    79. D(C   6,C   4,C   2,H   7)   -180.00  0.000002    0.01   -179.99   
    80. D(C   6,C   4,C   2,C   1)      0.19 -0.000042    0.00      0.19   
    81. D(H  10,C   5,C   3,C   1)   -179.85  0.000010   -0.01   -179.87   
    82. D(H  10,C   5,C   3,H   8)      1.56 -0.000042    0.12      1.68   
    83. D(C   6,C   5,C   3,H   8)   -178.25 -0.000111    0.25   -178.00   
    84. D(C   6,C   5,C   3,C   1)      0.33 -0.000059    0.12      0.45   
    85. D(H  11,C   6,C   5,C   3)    179.91  0.000048   -0.10    179.81   
    86. D(C   4,C   6,C   5,H  10)   -179.82 -0.000029    0.08   -179.74   
    87. D(H  11,C   6,C   4,H   9)      0.08 -0.000008    0.03      0.11   
    88. D(C   5,C   6,C   4,H   9)    179.99 -0.000000   -0.02    179.97   
    89. D(H  11,C   6,C   4,C   2)    179.83  0.000004    0.04    179.87   
    90. D(C   4,C   6,C   5,C   3)     -0.00  0.000040   -0.06     -0.06   
    91. D(C   5,C   6,C   4,C   2)     -0.26  0.000012   -0.00     -0.26   
    92. D(H  11,C   6,C   5,H  10)      0.10 -0.000021    0.03      0.13   
    93. D(H  16,H  12,N   0,H  13)   -132.12  0.000053    0.20   -131.91   
    94. D(H  16,H  12,N   0,C   1)     96.37  0.000531    0.07     96.45   
    95. D(H  16,H  13,N   0,H  12)    119.61 -0.000035   -1.30    118.31   
    96. D(H  16,H  13,N   0,C   1)   -108.95 -0.000396   -0.79   -109.74   
    97. D(C   1,H  16,O  14,H  15)      8.75 -0.000311   -5.38      3.36   
    98. D(H  13,H  16,O  14,H  15)    -40.50 -0.000281    0.74    -39.76   
    99. D(N   0,H  16,O  14,H  15)     23.49 -0.000536    8.21     31.70   
   100. D(C   1,H  16,H  13,N   0)     42.40 -0.000437   -0.04     42.36   
   101. D(O  14,H  16,H  13,N   0)    100.28 -0.000093   -0.31     99.97   
   102. D(C   1,H  16,H  12,N   0)    -42.41  0.000835    0.70    -41.71   
   103. D(H  13,H  16,H  12,N   0)     24.94 -0.000384   -0.25     24.69   
   104. D(O  14,H  16,H  12,N   0)   -137.04 -0.000422    2.23   -134.81   
   105. D(H  13,H  16,C   1,C   2)     85.47 -0.000146   -3.01     82.46   
   106. D(H  13,H  16,C   1,N   0)    -22.18 -0.000665    0.18    -22.00   
   107. D(N   0,H  16,C   1,C   3)   -127.40  0.000534   -3.44   -130.84   
   108. D(N   0,H  16,C   1,C   2)    107.65  0.000519   -3.19    104.45   
   109. D(O  14,H  16,C   1,C   3)     43.62  0.000314    5.67     49.29   
   110. D(O  14,H  16,C   1,C   2)    -81.33  0.000299    5.92    -75.41   
   111. D(O  14,H  16,C   1,N   0)    171.03 -0.000220    9.11    180.14   
   112. D(H  12,H  16,N   0,H  13)    124.72  0.000509   -0.55    124.17   
   113. D(H  12,H  16,N   0,C   1)   -114.87  0.000258   -0.36   -115.24   
   114. D(H  12,H  16,H  13,N   0)    -33.67 -0.000034   -0.87    -34.54   
   115. D(H  13,H  16,N   0,H  12)   -124.72 -0.000509    0.55   -124.17   
   116. D(H  13,H  16,N   0,C   1)    120.40 -0.000251    0.19    120.59   
   117. D(O  14,H  16,N   0,H  13)   -141.74  0.000245   -6.73   -148.47   
   118. D(H  12,H  16,O  14,H  15)     78.42 -0.000134   -0.44     77.97   
   119. D(O  14,H  16,N   0,H  12)     93.53 -0.000263   -6.18     87.36   
   120. D(O  14,H  16,N   0,C   1)    -21.34 -0.000005   -6.54    -27.88   
    ----------------------------------------------------------------------------

Geometry step timings:
Preparation and reading OPT file:      0.003 s (31.550 %)
Internal coordinates            :      0.000 s ( 0.841 %)
B/P matrices and projection     :      0.002 s (21.853 %)
Hessian update/contruction      :      0.001 s ( 8.149 %)
Making the step                 :      0.002 s (21.884 %)
Converting the step to Cartesian:      0.000 s ( 1.117 %)
Storing new data                :      0.000 s ( 0.420 %)
Checking convergence            :      0.000 s ( 0.215 %)
Final printing                  :      0.001 s (13.940 %)
Total time                      :      0.010 s
--------------------------------------------------------------------------
By default, for Open MPI 4.0 and later, infiniband ports on a device
are not used by default.  The intent is to use UCX for these devices.
You can override this policy by setting the btl_openib_allow_ib MCA parameter
to true.

  Local host:              psid00
  Local adapter:           mlx5_0
  Local port:              1

--------------------------------------------------------------------------
--------------------------------------------------------------------------
WARNING: There was an error initializing an OpenFabrics device.

  Local host:   psid00
  Local device: mlx5_0
--------------------------------------------------------------------------
[psid00:47355] 27 more processes have sent help message help-mpi-btl-openib.txt / ib port not selected
[psid00:47355] Set MCA parameter "orte_base_help_aggregate" to 0 to see all help / error messages
[psid00:47355] 27 more processes have sent help message help-mpi-btl-openib.txt / error in device init

Time for energy+gradient        :      8.368 s
Time for complete geometry iter :      9.425 s




    ----------------------------------------------------------------------------
                                  WARNING !!!
       The optimization did not converge but reached the maximum number of
       optimization cycles.
       Please check your results very carefully.
    ----------------------------------------------------------------------------



--------------------------------
SUGGESTED CITATIONS FOR THIS RUN
--------------------------------

Below you find a list of papers that are relevant to this ORCA run
We neither can nor want to force you to cite these papers, but we appreciate if you do
You receive ORCA, which is the product of decades of hard work by many enthusiastic individuals, for free
The only thing we kindly ask in return is that you cite our papers,
We deeply appreciate it, if you show your appreciation for ORCA by not just citing the generic ORCA reference.

Please note that relegating all ORCA citations to the supporting information does *not* help us.
SI sections are not indexed - citations you put there will not count into any citation statistics
But we need these citations in order to attract the funding resources that allow us to do what we are doing

Therefore, if you are a happy ORCA user, please consider citing a few of the papers listed below in the main body of your paper

In addition to the list printed below, the program has created the file aniline_water_2_OPT.bibtex that contains the list in bibtex format
You can import this file easily into all common literature databanks and citation aid programs


List of essential papers. We consider these as the minimum necessary citations

  1. Neese,F.
     Software update: the ORCA program system, version 5.0
     WIRES Comput. Molec. Sci., 2022 12(1)e1606
     doi.org/10.1002/wcms.1606

List of papers to cite with high priority. The work reported in these papers was absolutely
necessary for this run to complete.
Our perspective: the developers of density functionals and basis sets usually get cited in chemistry papers
Good! But without the algorithms to do something with them, the functionals or basis sets would not do anything.
Hence, in our opinion, the algorithm design and method developments papers are equally worthy of getting cited

  1. Neese,F.
     An improvement of the resolution of the identity approximation for the formation of the Coulomb matrix
     J. Comp. Chem., 2003 24(14)1740-1747
     doi.org/10.1002/jcc.10318
  2. Neese,F.; Wennmohs,F.; Hansen,A.; Becker,U.
     Efficient, approximate and parallel Hartree-Fock and hybrid DFT calculations. A 'chain-of-spheres' algorithm for the Hartree-Fock exchange
     Chem. Phys., 2009 356(1-3)98-109
     doi.org/10.1016/j.chemphys.2008.10.036
  3. Helmich-Paris,B.; de Souza,B.; Neese,F.; Izsák,R.
     An improved chain of spheres for exchange algorithm
     J. Chem. Phys., 2021 155 104109
     doi.org/doi: 10.1063/5.0058766.
  4. Neese,F.
     The SHARK Integral Generation and Digestion System
     J. Comp. Chem., 2022  1-16
     doi.org/10.1002/jcc.26942
  5. Grimme,S.; Antony,J.; Ehrlich,S.; Krieg,H.
     A consistent and accurate ab initio parametrization of density functional dispersion correction (DFT-D) for the 94 elements H-Pu
     J. Chem. Phys., 2010 132 154104
     doi.org/10.1063/1.3382344
  6. Grimme,S.; Ehrlich,S.; Goerigk,L.
     Effect of the damping function in dispersion corrected density functional theory
     J. Comput. Chem., 2011 32(7)1456-1465
     doi.org/10.1002/jcc.21759

List of suggested additional citations. These are papers that are important in the 'surrounding' of 
of this run, or papers that preceded the highly important papers. If you like your results we are grateful for a citation.

  1. Izsak,R.; Neese,F.
     An overlap fitted chain of spheres exchange method
     J. Chem. Phys., 2011 135 144105
     doi.org/10.1063/1.3646921
  2. Izsak,R.; Hansen,A.; Neese,F.
     The resolution of identity and chain of spheres approximations for the LPNO-CCSD singles Fock term
     Molec. Phys., 2012 110 2413-2417
     doi.org/10.1080/00268976.2012.687466
  3. Neese,F.
     The ORCA program system
     WIRES Comput. Molec. Sci., 2012 2(1)73-78
     doi.org/10.1002/wcms.81
  4. Izsak,R.; Neese,F.; Klopper,W.
     Robust fitting techniques in the chain of spheres approximation to the Fock exchange: The role of the complementary space
     J. Chem. Phys., 2013 139 
     doi.org/10.1063/1.4819264
  5. Neese,F.
     Software update: the ORCA program system, version 4.0
     WIRES Comput. Molec. Sci., 2018 8(1)1-6
     doi.org/10.1002/wcms.1327
  6. Neese,F.; Wennmohs,F.; Becker,U.; Riplinger,C.
     The ORCA quantum chemistry program package
     J. Chem. Phys., 2020 152 Art. No. L224108
     doi.org/10.1063/5.0004608

List of optional additional citations

  1. Neese,F.
     Approximate second-order SCF convergence for spin unrestricted wavefunctions
     Chem. Phys. Lett., 2000 325(1-3)93-98
     doi.org/10.1016/s0009-2614(00)00662-x

Timings for individual modules:

Sum of individual times          ...      408.004 sec (=   6.800 min)
Startup calculation              ...       83.251 sec (=   1.388 min)  20.4 %
SCF iterations                   ...      207.874 sec (=   3.465 min)  50.9 %
SCF Gradient evaluation          ...      116.391 sec (=   1.940 min)  28.5 %
Geometry relaxation              ...        0.489 sec (=   0.008 min)   0.1 %
                             ****ORCA TERMINATED NORMALLY****
TOTAL RUN TIME: 0 days 0 hours 7 minutes 44 seconds 520 msec
