# vtk DataFile Version 1.0
Cube
ASCII

DATASET POLYDATA
POINTS 640 float
20.280303 19.104262 5.644730
4.532467 3.356740 16.806442
11.215426 12.391153 5.644955
14.277698 5.223056 0.000225
-1.469909 -10.524550 22.451621
20.228033 9.711056 7.518075
26.272286 14.277855 0.000000
10.524680 -1.469751 22.451397
19.104262 11.215584 5.644730
21.784541 20.228033 7.518075
23.644302 14.631549 0.000000
7.896695 -1.116057 22.451397
-6.036647 -4.480139 14.933322
11.267563 21.784541 7.518075
9.711056 11.267563 7.518075
14.631549 7.851198 0.000000
-1.116057 -7.896408 22.451397
16.863951 23.644302 0.000000
1.116344 7.896695 22.451397
-4.532410 -3.356368 16.806666
12.391153 20.280146 5.644955
7.851198 16.863951 0.000000
-7.896408 1.116344 22.451397
5.223214 17.217645 0.000000
-10.524393 1.470038 22.451397
4.480330 -6.036647 14.933322
6.036838 4.480330 14.933322
17.217802 26.272444 -0.000225
1.470196 10.524837 22.451172
-3.356368 4.532310 16.806666
-4.480139 6.036838 14.933322
3.356740 -4.532252 16.806442
22.702015 21.851637 9.223034
-4.686426 12.062881 16.313185
-3.706908 15.895891 17.610875
19.552427 22.550798 3.165647
27.363308 17.407581 2.779483
5.936981 -2.932152 12.366229
4.302408 10.793631 19.218395
8.125860 14.091107 3.241982
17.404434 8.125860 3.241982
11.190382 3.168478 4.804599
12.040761 0.148060 4.840521
9.908592 3.949643 16.829567
-6.954122 -6.103743 13.228363
14.714762 22.365019 10.076187
19.454801 -0.147998 4.840521
26.541279 11.445485 3.233001
-3.804533 -6.802905 19.285750
1.659939 -11.615415 19.671914
9.643981 22.702015 9.223034
-0.708583 7.562135 10.251308
-2.875420 2.771723 18.562815
24.267322 9.773092 6.075348
-7.621788 -1.656541 19.209415
15.039179 -8.185602 12.200089
-11.615415 -1.659687 19.671914
21.684716 12.815583 10.085167
18.680046 21.684716 10.085167
-1.017278 11.111639 4.140038
11.262836 16.402902 7.117093
1.656786 -7.621788 19.209415
16.765172 4.636255 18.311359
19.697322 5.839302 5.621830
8.793603 9.643981 9.223034
8.185758 15.039179 12.200089
25.656270 19.697322 5.621830
12.815583 9.810913 10.085167
11.061259 -3.684934 6.138212
15.092689 11.262836 7.117093
18.519379 18.623314 3.888582
12.062881 4.686635 16.313185
23.369682 17.404434 3.241982
-10.793385 4.302408 19.218395
7.228256 21.722485 6.075348
4.686635 19.432828 16.313185
-3.684934 20.434320 6.138212
12.579416 -4.557286 17.646798
14.087955 27.363308 2.779483
4.954263 20.050056 3.233001
2.875658 -2.771485 18.562815
-9.908377 -3.949428 16.829567
20.305180 -3.168417 4.804599
12.872236 18.519379 3.888582
-5.936823 2.932310 12.366229
20.434320 3.685013 6.138212
5.974801 8.519637 16.376049
-6.802905 3.804780 19.285750
-4.302162 -10.793385 19.218395
9.130610 14.714762 10.076187
6.803151 -3.804533 19.285750
3.707133 15.599834 17.610875
17.407581 4.132227 2.779483
1.017331 20.383914 4.140038
0.148060 19.454801 4.840521
-1.659687 11.615666 19.671914
-3.949428 9.908592 16.829567
21.851637 8.793603 9.223034
20.050056 26.541279 3.233001
0.708714 23.933496 10.251308
9.773092 7.228256 6.075348
8.944742 19.552427 3.165647
-2.771485 -2.875420 18.562815
11.445485 4.954263 3.233001
6.954291 6.103912 13.228363
11.943114 8.944742 3.165647
-8.519428 5.974801 16.376049
20.383914 -1.017278 4.140038
16.456477 8.185758 12.200089
15.599834 -3.706908 17.610875
22.550798 11.943114 3.165647
18.916310 4.557512 17.646798
-8.185602 16.456477 12.200089
2.932310 5.936981 12.366229
16.402902 20.232755 7.117093
-2.932152 -5.936823 12.366229
2.771723 2.875658 18.562815
3.804780 6.803151 19.285750
4.485057 -0.655008 15.334304
11.615666 1.659939 19.671914
-4.484861 0.655204 15.334304
6.103912 -6.954122 13.228363
14.091107 23.369682 3.241982
22.365019 16.780867 10.076187
11.111639 1.017331 4.140038
11.798250 25.656270 5.621830
20.232755 15.092689 7.117093
-6.103743 6.954291 13.228363
19.432828 -4.686426 16.313185
7.562135 0.708714 10.251308
4.636255 14.730562 18.311359
-4.557286 18.916310 17.646798
1.033132 -6.617125 12.375210
-0.655008 -4.484861 15.334304
12.976171 12.872236 3.888582
0.655204 4.485057 15.334304
5.839302 11.798250 5.621830
-6.617125 -1.032973 12.375210
-0.147998 12.040761 4.840521
-5.974592 -8.519428 16.376049
8.519637 -5.974592 16.376049
3.685013 11.061259 6.138212
3.949643 -9.908377 16.829567
4.132227 14.087955 2.779483
15.895891 3.707133 17.610875
4.557512 12.579416 17.646798
-1.656541 7.622034 19.209415
23.933496 -0.708583 10.251308
-3.168417 11.190382 4.804599
21.722485 24.267322 6.075348
6.617284 1.033132 12.375210
7.622034 1.656786 19.209415
3.168478 20.305180 4.804599
9.810913 18.680046 10.085167
-4.636021 16.765172 18.311359
16.780867 9.130610 10.076187
18.623314 12.976171 3.888582
10.793631 -4.302162 19.218395
-1.032973 6.617284 12.375210
14.730562 -4.636021 18.311359
9.824505 -5.202943 17.709662
19.899510 23.311417 3.571119
22.114001 14.779959 10.256696
10.293708 7.160221 5.307959
4.968508 -0.733752 14.545362
15.285187 -5.289878 16.633791
10.457803 0.462706 5.817606
1.830868 11.314163 5.416175
-9.599073 -1.494021 19.584353
4.611980 -3.210243 14.636065
11.135914 18.958136 7.815331
17.695139 7.284617 3.511847
14.779959 9.381630 10.256696
21.728792 1.303015 7.267068
3.280366 -7.360704 17.138498
12.238316 -5.250505 17.130865
7.627960 -0.214104 10.164196
6.731940 16.153819 14.430860
12.982864 -6.098055 16.268731
15.341865 6.731940 14.430860
4.151857 7.563765 18.880277
-1.302922 21.728792 7.267068
-0.405926 22.479649 8.020537
14.444878 5.981093 15.184329
-5.830050 2.101461 12.768558
20.667692 23.197096 4.714793
8.952098 -2.986272 20.617566
21.845948 -2.764950 6.182666
-4.273831 12.615316 16.934639
12.859325 26.687739 4.255887
2.765029 21.845948 6.182666
-3.280147 7.360923 17.138498
14.880783 5.246624 16.274568
10.940078 2.888569 18.195510
9.479333 0.454612 20.670552
16.210525 5.290091 16.633791
-4.919799 -7.449202 17.736603
25.575637 19.079690 4.930327
5.919926 12.415873 4.930327
1.975172 5.134486 13.953094
5.454185 8.587673 17.143437
20.877141 21.868620 5.368578
-3.898704 -8.816096 19.428541
8.119933 15.961998 12.287200
6.148570 14.253622 2.867043
0.282281 -6.236342 12.771252
20.359686 12.537464 7.815331
24.335347 10.293708 5.307959
5.923389 20.950837 4.741735
7.563765 -4.151616 18.880277
7.160221 21.201860 5.307959
15.465612 21.984236 9.680144
3.132578 11.473846 5.516757
-5.289878 16.210525 16.633791
10.618427 9.626949 5.368578
16.614925 -5.246416 16.274568
-7.563524 4.151857 18.880277
16.666883 6.762808 14.800410
15.358835 21.273690 8.492016
15.293281 25.226962 1.780845
-7.490490 14.878874 13.264285
-4.447044 -9.955607 18.843906
15.013955 10.779385 7.906035
14.371183 -6.044200 15.909958
-3.509510 10.497169 5.320532
-6.120726 5.129466 17.082819
22.510513 -0.918990 7.650987
25.346967 17.241915 2.867043
14.253622 25.346967 2.867043
-10.851652 -1.958582 19.230519
14.828806 -6.762619 14.800410
23.197096 10.827868 4.714793
6.795796 18.734165 1.833830
-0.462632 10.457803 5.817606
-2.764950 9.649631 6.182666
16.153819 -6.731756 14.430860
9.649631 2.765029 6.182666
-8.587453 5.454185 17.143437
5.981093 17.050816 15.184329
12.415873 25.575637 4.930327
0.967935 6.366263 12.194701
23.867670 0.214234 10.164196
-5.525796 -0.388880 13.959380
-6.366107 0.967935 12.194701
11.848941 6.931549 3.022856
5.246624 16.614925 16.274568
12.467528 23.108597 5.312898
-3.331797 9.827968 17.521070
0.867111 10.501269 6.176828
15.533659 8.119933 12.287200
19.079690 5.919926 4.930327
-0.868902 23.238383 9.187111
10.497169 3.509578 5.320532
13.917025 4.433730 17.035222
21.984236 16.030012 9.680144
17.578692 -4.433513 17.035222
-9.824278 5.203170 17.709662
10.851897 1.958828 19.230519
-5.453966 -8.587453 17.143437
19.028040 8.386971 5.312898
-3.132507 20.021725 5.516757
-0.967779 -6.366107 12.194701
6.236506 0.282281 12.771252
-0.867032 20.994310 6.176828
10.779385 16.481646 7.906035
19.257403 5.250724 17.130865
18.880401 -4.273831 16.934639
6.366263 -0.967779 12.194701
8.591142 2.846048 17.880741
4.807815 12.859325 4.255887
18.734165 24.699728 1.833830
13.646432 9.917680 9.682838
6.120945 -5.129248 17.082819
21.868620 10.618427 5.368578
21.152113 17.475328 7.813984
-6.098055 18.512844 16.268731
-8.816096 3.898952 19.428541
14.878874 7.490660 13.264285
21.577944 13.646432 9.682838
-0.282118 6.236506 12.771252
18.593713 7.156752 4.570655
8.816345 -3.898704 19.428541
6.762808 14.828806 14.800410
1.958828 -10.851652 19.230519
18.636230 4.807815 4.255887
24.699728 12.761358 1.833830
23.238383 0.869020 9.187111
9.766801 -1.302922 7.267068
20.994310 0.867111 6.176828
0.462706 21.037771 5.817606
0.869020 8.257234 9.187111
3.898952 8.816345 19.428541
9.015953 -0.405926 8.020537
16.481646 20.716216 7.906035
7.284617 13.800406 3.511847
-1.974994 -5.134307 13.953094
8.463277 1.947488 18.939549
-9.955607 4.447285 18.843906
12.537464 11.135914 7.815331
11.314163 -1.830799 5.416175
-2.888336 10.940078 18.195510
0.919088 22.510513 7.650987
17.722887 20.882201 8.498303
6.098263 12.982864 16.268731
-6.236342 -0.282118 12.771252
17.475328 10.343487 7.813984
12.615316 4.274048 16.934639
3.509578 20.998399 5.320532
17.706476 4.895996 3.220877
-8.463035 -1.947246 18.939549
16.136774 10.221919 8.492016
5.290091 15.285187 16.633791
5.525975 0.389059 13.959380
4.274048 18.880401 16.934639
-5.980898 14.444878 15.184329
5.830214 -2.101298 12.768558
17.050816 -5.980898 15.184329
10.343487 14.020272 7.813984
9.917680 17.849192 9.682838
-8.119776 15.533659 12.287200
8.257234 -0.868902 9.187111
-9.479069 -0.454348 20.670552
-6.731756 15.341865 14.430860
7.360923 3.280366 17.138498
21.201860 24.335347 5.307959
8.184129 19.899510 3.571119
2.986535 8.952098 20.617566
20.194938 25.703501 3.607490
2.101461 5.830214 12.768558
14.020272 21.152113 7.813984
21.037771 -0.462632 5.817606
-2.845819 8.591142 17.880741
3.332021 -9.827744 17.521070
-1.494021 9.599324 19.584353
-3.210243 -4.611793 14.636065
-0.388880 5.525975 13.959380
20.716216 15.013955 7.906035
0.389059 -5.525796 13.959380
12.761358 6.795796 1.833830
0.454612 -9.479069 20.670552
25.572172 10.544724 4.741735
4.920025 7.449429 17.736603
-9.827744 -3.331797 17.521070
18.512844 6.098263 16.268731
-8.951834 2.986535 20.617566
3.210430 4.611980 14.636065
20.021725 3.132578 5.516757
5.250724 12.238316 17.130865
-7.360704 -3.280147 17.138498
-0.918990 8.985085 7.650987
16.616796 -7.490490 13.264285
-0.214104 23.867670 10.164196
13.789065 26.599545 3.220877
9.827968 3.332021 17.521070
-8.590913 -2.845819 17.880741
2.888569 -10.939846 18.195510
12.901846 24.338807 4.570655
-10.939846 -2.888336 18.195510
2.846048 -8.590913 17.880741
10.544724 5.923389 4.741735
5.404406 1.727622 14.637412
-5.129248 -6.120726 17.082819
-6.044200 17.124520 15.909958
-4.433513 13.917025 17.035222
8.587673 -5.453966 17.143437
24.210928 17.695139 3.511847
9.626949 20.877141 5.368578
13.772722 10.613408 8.498303
-5.202943 -9.824278 17.709662
20.950837 25.572172 4.741735
20.181406 1.830868 5.416175
11.473846 -3.132507 5.516757
-2.986272 -8.951834 20.617566
8.985085 0.919088 7.650987
6.044403 14.371183 15.909958
5.792046 20.194938 3.607490
-1.958582 10.851897 19.230519
24.563990 11.848941 3.022856
1.494272 -9.599073 19.584353
0.733938 4.968508 14.545362
-7.449202 4.920025 17.736603
1.303015 9.766801 7.267068
13.800406 24.210928 3.511847
21.792093 -1.376626 6.541439
-0.454348 9.479333 20.670552
18.958136 20.359686 7.815331
4.433730 17.578692 17.035222
7.490660 16.616796 13.264285
1.947488 -8.463035 18.939549
26.687739 18.636230 4.255887
-1.376626 9.703490 6.541439
1.727622 -5.404219 14.637412
-1.947246 8.463277 18.939549
22.479649 0.406028 8.020537
10.501269 -0.867032 6.176828
16.202241 6.268561 1.780845
25.226962 16.202241 1.780845
17.124520 6.044403 15.909958
0.214234 7.627960 10.164196
-5.134307 1.975172 13.953094
-5.246416 14.880783 16.274568
8.386971 12.467528 5.312898
9.511388 15.465612 9.680144
-2.101298 -5.830050 12.768558
5.203170 9.824505 17.709662
-1.727435 5.404406 14.637412
8.298464 20.667692 4.714793
11.300608 5.792046 3.607490
-4.968322 0.733938 14.545362
9.955848 -4.447044 18.843906
7.156752 12.901846 4.570655
10.613408 17.722887 8.498303
1.376710 21.792093 6.541439
-1.830799 20.181406 5.416175
-5.250505 19.257403 17.130865
19.646597 24.563990 3.022856
4.895996 13.789065 3.220877
5.134486 -1.974994 13.953094
9.381630 16.715672 10.256696
-4.151616 -7.563524 18.880277
23.108597 19.028040 5.312898
15.961998 -8.119776 12.287200
0.406028 9.015953 8.020537
25.703501 11.300608 3.607490
24.338807 18.593713 4.570655
6.268561 15.293281 1.780845
16.715672 22.114001 10.256696
23.311417 11.596036 3.571119
17.241915 6.148570 2.867043
-5.404219 -1.727435 14.637412
20.882201 13.772722 8.498303
10.827868 8.298464 4.714793
6.931549 19.646597 3.022856
17.849192 21.577944 9.682838
7.449429 -4.919799 17.736603
5.129466 6.120945 17.082819
-6.762619 16.666883 14.800410
4.447285 9.955848 18.843906
9.599324 1.494272 19.584353
9.703490 1.376710 6.541439
20.998399 -3.509510 5.320532
-4.611793 3.210430 14.636065
26.599545 17.706476 3.220877
10.221919 15.358835 8.492016
21.273690 16.136774 8.492016
16.030012 9.511388 9.680144
-0.733752 -4.968322 14.545362
11.596036 8.184129 3.571119
-3.187225 13.268544 18.657560
21.378865 26.716407 5.386988
6.750219 10.874240 16.195539
3.757529 17.196344 18.107051
3.518707 12.326108 4.574697
19.505191 1.448506 4.344345
27.976852 19.169450 4.574697
-7.637576 13.588502 13.020014
-12.228958 -3.421557 17.876700
-3.582570 8.747919 6.791547
2.307428 7.445604 10.561137
-2.479302 18.935119 3.793837
10.968732 -5.630971 17.064408
16.573044 4.280350 17.521070
13.440466 8.302290 11.890260
-1.111406 -7.117913 10.979182
18.935119 2.479350 3.793837
-10.874033 6.750219 16.195539
4.779162 21.378865 5.386988
22.865806 14.636347 11.472215
11.467543 0.825214 4.930327
8.110152 -2.159271 9.431383
8.629840 16.859300 11.472215
19.330463 6.999975 15.659849
-3.757297 14.299388 18.107051
8.747919 3.582657 6.791547
3.187464 18.227195 18.657560
-1.448450 19.505191 4.344345
1.111546 7.118053 10.979182
11.990365 -1.448450 4.344345
26.621926 8.997674 6.255857
4.873654 22.497906 6.255857
6.999975 12.165237 15.659849
18.227195 -3.187225 18.657560
14.922680 -4.280126 17.521070
12.326108 27.976852 4.574697
13.268544 3.187464 18.657560
12.229187 3.421785 17.876700
2.159392 8.110152 9.431383
10.874240 -6.750012 16.195539
-2.159271 23.385469 9.431383
5.631190 10.968732 17.064408
14.636347 8.629840 11.472215
13.588502 7.637742 13.020014
16.859300 22.865806 11.472215
18.055186 -8.302138 11.890260
4.280350 14.922680 17.521070
19.169450 3.518707 4.574697
-8.302138 13.440466 11.890260
20.028020 -0.825151 4.930327
12.165237 -6.999775 15.659849
3.421785 -12.228958 17.876700
22.747668 -3.582570 6.791547
12.560430 -2.479302 3.793837
22.497906 26.621926 6.255857
-6.999775 19.330463 15.659849
7.118053 -1.111406 10.979182
3.582657 22.747668 6.791547
17.196344 -3.757297 18.107051
1.448506 11.990365 4.344345
2.479350 12.560430 3.793837
-4.280126 16.573044 17.521070
0.825214 20.028020 4.930327
-7.117913 1.111546 10.979182
7.637742 17.907165 13.020014
24.050031 2.307428 10.561137
8.302290 18.055186 11.890260
7.445604 -2.307293 10.561137
26.716407 10.116704 5.386988
10.116704 4.779162 5.386988
8.997674 4.873654 6.255857
-10.968514 5.631190 17.064408
-5.630971 -10.968514 17.064408
-2.307293 24.050031 10.561137
-6.750012 -10.874033 16.195539
23.385469 2.159392 9.431383
17.907165 -7.637576 13.020014
14.299388 3.757529 18.107051
-3.421557 12.229187 17.876700
-0.825151 11.467543 4.930327
0.218398 -8.312788 21.070187
-5.131134 4.589637 17.642307
10.535379 -0.059392 21.077820
20.879028 11.158256 4.809089
7.526267 3.945229 16.084630
-2.688681 6.030534 14.131807
2.777408 10.110505 21.049980
5.637389 18.525032 1.401416
2.487964 7.891017 21.061206
-2.777139 -10.110236 21.049980
6.030534 2.688861 14.131807
9.717360 13.059032 8.319590
18.126317 12.374923 4.136894
19.692917 8.221626 6.366767
11.761093 18.783329 6.744400
6.095741 -5.790975 16.021766
-0.059392 -10.535110 21.077820
11.441739 10.891827 8.367635
-0.218129 8.313057 21.070187
13.369236 19.120630 4.136894
21.538869 21.843430 6.429631
18.235588 23.638641 1.390190
-3.945024 7.526267 16.084630
18.525032 25.858129 1.401416
5.131360 -4.589411 17.642307
3.945229 -7.526062 16.084630
7.434837 15.529495 1.381210
20.442198 17.520360 6.780771
8.488725 10.379400 9.021420
3.035637 3.986801 15.706997
10.379400 23.006891 9.021420
21.116216 8.488725 9.021420
-7.526062 -3.945024 16.084630
18.783329 19.734494 6.744400
12.970486 5.637389 1.401416
9.652152 21.538869 6.429631
-3.035436 -3.986600 15.706997
2.378657 -3.372736 18.314502
6.257009 2.921950 17.615366
-1.772467 4.694504 15.670626
18.669618 9.490885 4.836031
-8.312788 -0.218129 21.070187
-7.258997 -5.368322 13.429976
20.603780 11.441739 8.367635
10.110505 -2.777139 21.049980
-2.378423 3.372970 18.314502
-2.921725 6.257009 17.615366
20.337305 20.879028 4.809089
-4.305975 -4.855886 14.083761
-3.986600 3.035637 15.706997
10.616534 20.337305 4.809089
18.436574 9.717360 8.319590
12.825943 22.004677 4.836031
9.956714 9.652152 6.429631
8.313057 0.218398 21.070187
12.712257 11.761093 6.744400
-10.535110 0.059661 21.077820
-6.095537 5.791180 16.021766
5.791180 6.095741 16.021766
4.589637 5.131360 17.642307
23.638641 13.259929 1.390190
-4.694304 -1.772467 15.670626
4.306155 4.856066 14.083761
21.843430 9.956714 6.429631
7.856876 18.235588 1.390190
22.004677 18.669618 4.836031
0.059661 10.535379 21.077820
2.688861 -6.030353 14.131807
8.221626 11.802664 6.366767
3.986801 -3.035436 15.706997
11.802664 23.273955 6.366767
15.688232 5.212514 1.373576
1.772667 -4.694304 15.670626
5.212514 15.807285 1.373576
15.966023 7.434837 1.381210
5.368494 -7.258997 13.429976
-6.256783 -2.921725 17.615366
15.529495 24.060681 1.381210
26.283004 15.688232 1.373576
13.059032 21.778247 8.319590
21.778247 18.436574 8.319590
24.060681 15.966023 1.381210
19.734494 12.712257 6.744400
7.259169 5.368494 13.429976
10.891827 20.053868 8.367635
20.053868 20.603780 8.367635
4.694504 1.772667 15.670626
-2.487695 -7.890748 21.061206
-4.855886 4.306155 14.083761
7.891017 -2.487695 21.061206
-5.368322 7.259169 13.429976
-3.372736 -2.378423 18.314502
-4.589411 -5.131134 17.642307
9.490885 12.825943 4.836031
25.858129 12.970486 1.401416
-10.110236 2.777408 21.049980
2.921950 -6.256783 17.615366
-7.890748 2.487964 21.061206
-6.030353 -2.688681 14.131807
23.273955 19.692917 6.366767
11.053389 13.975227 6.780771
3.372970 2.378657 18.314502
11.158256 10.616534 4.809089
13.259929 7.856876 1.390190
23.006891 21.116216 9.021420
17.520360 11.053389 6.780771
-5.790975 -6.095537 16.021766
4.856066 -4.305975 14.083761
12.374923 13.369236 4.136894
19.120630 18.126317 4.136894
15.807285 26.283004 1.373576
13.975227 20.442198 6.780771
POINT_DATA 640
SCALARS my_scalars float
LOOKUP_TABLE default
1.4
1.4
1.4
1.4
1.4
1.4
1.4
1.4
1.4
1.4
1.4
1.4
1.4
1.4
1.4
1.4
1.4
1.4
1.4
1.4
1.4
1.4
1.4
1.4
1.4
1.4
1.4
1.4
1.4
1.4
1.4
1.4
1.09
1.09
1.09
1.09
1.09
1.09
1.09
1.09
1.09
1.09
1.09
1.09
1.09
1.09
1.09
1.09
1.09
1.09
1.09
1.09
1.09
1.09
1.09
1.09
1.09
1.09
1.09
1.09
1.09
1.09
1.09
1.09
1.09
1.09
1.09
1.09
1.09
1.09
1.09
1.09
1.09
1.09
1.09
1.09
1.09
1.09
1.09
1.09
1.09
1.09
1.09
1.09
1.09
1.09
1.09
1.09
1.09
1.09
1.09
1.09
1.09
1.09
1.09
1.09
1.09
1.09
1.09
1.09
1.09
1.09
1.09
1.09
1.09
1.09
1.09
1.09
1.09
1.09
1.09
1.09
1.09
1.09
1.09
1.09
1.09
1.09
1.09
1.09
1.09
1.09
1.09
1.09
1.09
1.09
1.09
1.09
1.09
1.09
1.09
1.09
1.09
1.09
1.09
1.09
1.09
1.09
1.09
1.09
1.09
1.09
1.09
1.09
1.09
1.09
1.09
1.09
1.09
1.09
1.09
1.09
1.09
1.09
1.09
1.09
1.09
1.09
1.09
1.09
1.7
1.7
1.7
1.7
1.7
1.7
1.7
1.7
1.7
1.7
1.7
1.7
1.7
1.7
1.7
1.7
1.7
1.7
1.7
1.7
1.7
1.7
1.7
1.7
1.7
1.7
1.7
1.7
1.7
1.7
1.7
1.7
1.7
1.7
1.7
1.7
1.7
1.7
1.7
1.7
1.7
1.7
1.7
1.7
1.7
1.7
1.7
1.7
1.7
1.7
1.7
1.7
1.7
1.7
1.7
1.7
1.7
1.7
1.7
1.7
1.7
1.7
1.7
1.7
1.7
1.7
1.7
1.7
1.7
1.7
1.7
1.7
1.7
1.7
1.7
1.7
1.7
1.7
1.7
1.7
1.7
1.7
1.7
1.7
1.7
1.7
1.7
1.7
1.7
1.7
1.7
1.7
1.7
1.7
1.7
1.7
1.7
1.7
1.7
1.7
1.7
1.7
1.7
1.7
1.7
1.7
1.7
1.7
1.7
1.7
1.7
1.7
1.7
1.7
1.7
1.7
1.7
1.7
1.7
1.7
1.7
1.7
1.7
1.7
1.7
1.7
1.7
1.7
1.7
1.7
1.7
1.7
1.7
1.7
1.7
1.7
1.7
1.7
1.7
1.7
1.7
1.7
1.7
1.7
1.7
1.7
1.7
1.7
1.7
1.7
1.7
1.7
1.7
1.7
1.7
1.7
1.7
1.7
1.7
1.7
1.7
1.7
1.7
1.7
1.7
1.7
1.7
1.7
1.7
1.7
1.7
1.7
1.7
1.7
1.7
1.7
1.7
1.7
1.7
1.7
1.7
1.7
1.7
1.7
1.7
1.7
1.7
1.7
1.7
1.7
1.7
1.7
1.7
1.7
1.7
1.7
1.7
1.7
1.7
1.7
1.7
1.7
1.7
1.7
1.7
1.7
1.7
1.7
1.7
1.7
1.7
1.7
1.7
1.7
1.7
1.7
1.7
1.7
1.7
1.7
1.7
1.7
1.7
1.7
1.7
1.7
1.7
1.7
1.7
1.7
1.7
1.7
1.7
1.7
1.7
1.7
1.7
1.7
1.7
1.7
1.7
1.7
1.7
1.7
1.7
1.7
1.7
1.7
1.7
1.7
1.7
1.7
1.7
1.7
1.7
1.7
1.7
1.7
1.7
1.7
1.7
1.7
1.7
1.7
1.7
1.7
1.7
1.7
1.7
1.7
1.7
1.7
1.7
1.7
1.7
1.7
1.7
1.7
1.7
1.7
1.7
1.7
1.7
1.7
1.7
1.7
1.7
1.7
1.55
1.55
1.55
1.55
1.55
1.55
1.55
1.55
1.55
1.55
1.55
1.55
1.55
1.55
1.55
1.55
1.55
1.55
1.55
1.55
1.55
1.55
1.55
1.55
1.55
1.55
1.55
1.55
1.55
1.55
1.55
1.55
1.55
1.55
1.55
1.55
1.55
1.55
1.55
1.55
1.55
1.55
1.55
1.55
1.55
1.55
1.55
1.55
1.55
1.55
1.55
1.55
1.55
1.55
1.55
1.55
1.55
1.55
1.55
1.55
1.55
1.55
1.55
1.55
1.55
1.55
1.55
1.55
1.55
1.55
1.55
1.55
1.55
1.55
1.55
1.55
1.55
1.55
1.55
1.55
1.52
1.52
1.52
1.52
1.52
1.52
1.52
1.52
1.52
1.52
1.52
1.52
1.52
1.52
1.52
1.52
1.52
1.52
1.52
1.52
1.52
1.52
1.52
1.52
1.52
1.52
1.52
1.52
1.52
1.52
1.52
1.52
1.52
1.52
1.52
1.52
1.52
1.52
1.52
1.52
1.52
1.52
1.52
1.52
1.52
1.52
1.52
1.52
1.52
1.52
1.52
1.52
1.52
1.52
1.52
1.52
1.52
1.52
1.52
1.52
1.52
1.52
1.52
1.52
1.52
1.52
1.52
1.52
1.52
1.52
1.52
1.52
1.52
1.52
1.52
1.52
1.52
1.52
1.52
1.52
1.52
1.52
1.52
1.52
1.52
1.52
1.52
1.52
1.52
1.52
1.52
1.52
1.52
1.52
1.52
1.52
1.52
1.52
1.52
1.52
1.52
1.52
1.52
1.52
1.52
1.52
1.52
1.52
1.52
1.52
1.52
1.52
VECTORS vectors float
0.4375 0 0
0.4375 0 0
0.4375 0 0
0.4375 0 0
0.4375 0 0
0.4375 0 0
0.4375 0 0
0.4375 0 0
0.4375 0 0
0.4375 0 0
0.4375 0 0
0.4375 0 0
0.4375 0 0
0.4375 0 0
0.4375 0 0
0.4375 0 0
0.4375 0 0
0.4375 0 0
0.4375 0 0
0.4375 0 0
0.4375 0 0
0.4375 0 0
0.4375 0 0
0.4375 0 0
0.4375 0 0
0.4375 0 0
0.4375 0 0
0.4375 0 0
0.4375 0 0
0.4375 0 0
0.4375 0 0
0.4375 0 0
0.25 0 0
0.25 0 0
0.25 0 0
0.25 0 0
0.25 0 0
0.25 0 0
0.25 0 0
0.25 0 0
0.25 0 0
0.25 0 0
0.25 0 0
0.25 0 0
0.25 0 0
0.25 0 0
0.25 0 0
0.25 0 0
0.25 0 0
0.25 0 0
0.25 0 0
0.25 0 0
0.25 0 0
0.25 0 0
0.25 0 0
0.25 0 0
0.25 0 0
0.25 0 0
0.25 0 0
0.25 0 0
0.25 0 0
0.25 0 0
0.25 0 0
0.25 0 0
0.25 0 0
0.25 0 0
0.25 0 0
0.25 0 0
0.25 0 0
0.25 0 0
0.25 0 0
0.25 0 0
0.25 0 0
0.25 0 0
0.25 0 0
0.25 0 0
0.25 0 0
0.25 0 0
0.25 0 0
0.25 0 0
0.25 0 0
0.25 0 0
0.25 0 0
0.25 0 0
0.25 0 0
0.25 0 0
0.25 0 0
0.25 0 0
0.25 0 0
0.25 0 0
0.25 0 0
0.25 0 0
0.25 0 0
0.25 0 0
0.25 0 0
0.25 0 0
0.25 0 0
0.25 0 0
0.25 0 0
0.25 0 0
0.25 0 0
0.25 0 0
0.25 0 0
0.25 0 0
0.25 0 0
0.25 0 0
0.25 0 0
0.25 0 0
0.25 0 0
0.25 0 0
0.25 0 0
0.25 0 0
0.25 0 0
0.25 0 0
0.25 0 0
0.25 0 0
0.25 0 0
0.25 0 0
0.25 0 0
0.25 0 0
0.25 0 0
0.25 0 0
0.25 0 0
0.25 0 0
0.25 0 0
0.25 0 0
0.25 0 0
0.25 0 0
0.25 0 0
0.25 0 0
0.25 0 0
0.25 0 0
0.25 0 0
0.25 0 0
0.25 0 0
0.25 0 0
0.25 0 0
0.25 0 0
0.25 0 0
0.25 0 0
0.25 0 0
0.25 0 0
0.25 0 0
0.25 0 0
0.25 0 0
0.25 0 0
0.25 0 0
0.25 0 0
0.25 0 0
0.25 0 0
0.25 0 0
0.25 0 0
0.25 0 0
0.25 0 0
0.25 0 0
0.25 0 0
0.25 0 0
0.25 0 0
0.25 0 0
0.25 0 0
0.3125 0 0
0.3125 0 0
0.3125 0 0
0.3125 0 0
0.3125 0 0
0.3125 0 0
0.3125 0 0
0.3125 0 0
0.3125 0 0
0.3125 0 0
0.3125 0 0
0.3125 0 0
0.3125 0 0
0.3125 0 0
0.3125 0 0
0.3125 0 0
0.3125 0 0
0.3125 0 0
0.3125 0 0
0.3125 0 0
0.3125 0 0
0.3125 0 0
0.3125 0 0
0.3125 0 0
0.3125 0 0
0.3125 0 0
0.3125 0 0
0.3125 0 0
0.3125 0 0
0.3125 0 0
0.3125 0 0
0.3125 0 0
0.3125 0 0
0.3125 0 0
0.3125 0 0
0.3125 0 0
0.3125 0 0
0.3125 0 0
0.3125 0 0
0.3125 0 0
0.3125 0 0
0.3125 0 0
0.3125 0 0
0.3125 0 0
0.3125 0 0
0.3125 0 0
0.3125 0 0
0.3125 0 0
0.3125 0 0
0.3125 0 0
0.3125 0 0
0.3125 0 0
0.3125 0 0
0.3125 0 0
0.3125 0 0
0.3125 0 0
0.3125 0 0
0.3125 0 0
0.3125 0 0
0.3125 0 0
0.3125 0 0
0.3125 0 0
0.3125 0 0
0.3125 0 0
0.3125 0 0
0.3125 0 0
0.3125 0 0
0.3125 0 0
0.3125 0 0
0.3125 0 0
0.3125 0 0
0.3125 0 0
0.3125 0 0
0.3125 0 0
0.3125 0 0
0.3125 0 0
0.3125 0 0
0.3125 0 0
0.3125 0 0
0.3125 0 0
0.3125 0 0
0.3125 0 0
0.3125 0 0
0.3125 0 0
0.3125 0 0
0.3125 0 0
0.3125 0 0
0.3125 0 0
0.3125 0 0
0.3125 0 0
0.3125 0 0
0.3125 0 0
0.3125 0 0
0.3125 0 0
0.3125 0 0
0.3125 0 0
0.3125 0 0
0.3125 0 0
0.3125 0 0
0.3125 0 0
0.3125 0 0
0.3125 0 0
0.3125 0 0
0.3125 0 0
0.3125 0 0
0.3125 0 0
0.3125 0 0
0.3125 0 0
0.3125 0 0
0.3125 0 0
0.3125 0 0
0.3125 0 0
0.3125 0 0
0.3125 0 0
0.3125 0 0
0.3125 0 0
0.3125 0 0
0.3125 0 0
0.3125 0 0
0.3125 0 0
0.3125 0 0
0.3125 0 0
0.3125 0 0
0.3125 0 0
0.3125 0 0
0.3125 0 0
0.3125 0 0
0.3125 0 0
0.3125 0 0
0.3125 0 0
0.3125 0 0
0.3125 0 0
0.3125 0 0
0.3125 0 0
0.3125 0 0
0.3125 0 0
0.3125 0 0
0.3125 0 0
0.3125 0 0
0.3125 0 0
0.3125 0 0
0.3125 0 0
0.3125 0 0
0.3125 0 0
0.3125 0 0
0.3125 0 0
0.3125 0 0
0.3125 0 0
0.3125 0 0
0.3125 0 0
0.3125 0 0
0.3125 0 0
0.3125 0 0
0.3125 0 0
0.3125 0 0
0.3125 0 0
0.3125 0 0
0.3125 0 0
0.3125 0 0
0.3125 0 0
0.3125 0 0
0.3125 0 0
0.3125 0 0
0.3125 0 0
0.3125 0 0
0.3125 0 0
0.3125 0 0
0.3125 0 0
0.3125 0 0
0.3125 0 0
0.3125 0 0
0.3125 0 0
0.3125 0 0
0.3125 0 0
0.3125 0 0
0.3125 0 0
0.3125 0 0
0.3125 0 0
0.3125 0 0
0.3125 0 0
0.3125 0 0
0.3125 0 0
0.3125 0 0
0.3125 0 0
0.3125 0 0
0.3125 0 0
0.3125 0 0
0.3125 0 0
0.3125 0 0
0.3125 0 0
0.3125 0 0
0.3125 0 0
0.3125 0 0
0.3125 0 0
0.3125 0 0
0.3125 0 0
0.3125 0 0
0.3125 0 0
0.3125 0 0
0.3125 0 0
0.3125 0 0
0.3125 0 0
0.3125 0 0
0.3125 0 0
0.3125 0 0
0.3125 0 0
0.3125 0 0
0.3125 0 0
0.3125 0 0
0.3125 0 0
0.3125 0 0
0.3125 0 0
0.3125 0 0
0.3125 0 0
0.3125 0 0
0.3125 0 0
0.3125 0 0
0.3125 0 0
0.3125 0 0
0.3125 0 0
0.3125 0 0
0.3125 0 0
0.3125 0 0
0.3125 0 0
0.3125 0 0
0.3125 0 0
0.3125 0 0
0.3125 0 0
0.3125 0 0
0.3125 0 0
0.3125 0 0
0.3125 0 0
0.3125 0 0
0.3125 0 0
0.3125 0 0
0.3125 0 0
0.3125 0 0
0.3125 0 0
0.3125 0 0
0.3125 0 0
0.3125 0 0
0.3125 0 0
0.3125 0 0
0.3125 0 0
0.3125 0 0
0.3125 0 0
0.3125 0 0
0.3125 0 0
0.3125 0 0
0.3125 0 0
0.3125 0 0
0.3125 0 0
0.3125 0 0
0.3125 0 0
0.3125 0 0
0.3125 0 0
0.3125 0 0
0.3125 0 0
0.3125 0 0
0.3125 0 0
0.3125 0 0
0.3125 0 0
0.3125 0 0
0.3125 0 0
0.3125 0 0
0.3125 0 0
0.3125 0 0
0.3125 0 0
0.3125 0 0
0.3125 0 0
0.3125 0 0
0.3125 0 0
0.3125 0 0
0.3125 0 0
0.3125 0 0
0.3125 0 0
0.3125 0 0
0.3125 0 0
0.3125 0 0
0.3125 0 0
0.3125 0 0
0.3125 0 0
0.3125 0 0
0.3125 0 0
0.3125 0 0
0.3125 0 0
0.3125 0 0
0.3125 0 0
0 0 0
0 0 0
0 0 0
0 0 0
0 0 0
0 0 0
0 0 0
0 0 0
0 0 0
0 0 0
0 0 0
0 0 0
0 0 0
0 0 0
0 0 0
0 0 0
0 0 0
0 0 0
0 0 0
0 0 0
0 0 0
0 0 0
0 0 0
0 0 0
0 0 0
0 0 0
0 0 0
0 0 0
0 0 0
0 0 0
0 0 0
0 0 0
0 0 0
0 0 0
0 0 0
0 0 0
0 0 0
0 0 0
0 0 0
0 0 0
0 0 0
0 0 0
0 0 0
0 0 0
0 0 0
0 0 0
0 0 0
0 0 0
0 0 0
0 0 0
0 0 0
0 0 0
0 0 0
0 0 0
0 0 0
0 0 0
0 0 0
0 0 0
0 0 0
0 0 0
0 0 0
0 0 0
0 0 0
0 0 0
0 0 0
0 0 0
0 0 0
0 0 0
0 0 0
0 0 0
0 0 0
0 0 0
0 0 0
0 0 0
0 0 0
0 0 0
0 0 0
0 0 0
0 0 0
0 0 0
0.03125 0 0
0.03125 0 0
0.03125 0 0
0.03125 0 0
0.03125 0 0
0.03125 0 0
0.03125 0 0
0.03125 0 0
0.03125 0 0
0.03125 0 0
0.03125 0 0
0.03125 0 0
0.03125 0 0
0.03125 0 0
0.03125 0 0
0.03125 0 0
0.03125 0 0
0.03125 0 0
0.03125 0 0
0.03125 0 0
0.03125 0 0
0.03125 0 0
0.03125 0 0
0.03125 0 0
0.03125 0 0
0.03125 0 0
0.03125 0 0
0.03125 0 0
0.03125 0 0
0.03125 0 0
0.03125 0 0
0.03125 0 0
0.03125 0 0
0.03125 0 0
0.03125 0 0
0.03125 0 0
0.03125 0 0
0.03125 0 0
0.03125 0 0
0.03125 0 0
0.03125 0 0
0.03125 0 0
0.03125 0 0
0.03125 0 0
0.03125 0 0
0.03125 0 0
0.03125 0 0
0.03125 0 0
0.03125 0 0
0.03125 0 0
0.03125 0 0
0.03125 0 0
0.03125 0 0
0.03125 0 0
0.03125 0 0
0.03125 0 0
0.03125 0 0
0.03125 0 0
0.03125 0 0
0.03125 0 0
0.03125 0 0
0.03125 0 0
0.03125 0 0
0.03125 0 0
0.03125 0 0
0.03125 0 0
0.03125 0 0
0.03125 0 0
0.03125 0 0
0.03125 0 0
0.03125 0 0
0.03125 0 0
0.03125 0 0
0.03125 0 0
0.03125 0 0
0.03125 0 0
0.03125 0 0
0.03125 0 0
0.03125 0 0
0.03125 0 0
0.03125 0 0
0.03125 0 0
0.03125 0 0
0.03125 0 0
0.03125 0 0
0.03125 0 0
0.03125 0 0
0.03125 0 0
0.03125 0 0
0.03125 0 0
0.03125 0 0
0.03125 0 0
0.03125 0 0
0.03125 0 0
0.03125 0 0
0.03125 0 0
0.03125 0 0
0.03125 0 0
0.03125 0 0
0.03125 0 0
0.03125 0 0
0.03125 0 0
0.03125 0 0
0.03125 0 0
0.03125 0 0
0.03125 0 0
0.03125 0 0
0.03125 0 0
0.03125 0 0
0.03125 0 0
0.03125 0 0
0.03125 0 0
