LAMMPS data file via write_data, version 2 Aug 2023, timestep = 11, units = real

40 atoms
4 atom types

-15 15 xlo xhi
-15 15 ylo yhi
-15 15 zlo zhi

Masses

1 15.9994
2 1.00794
3 15.9994
4 15.9994

Atoms # charge

37 2 0.1287625897278823 4.608969 -3.8286 1.439678 0 0 0
2 3 -0.6529395417941468 -4.093572 -1.399029 1.232661 0 0 0
12 1 -0.2004836187313014 -3.716933 -0.800485 -1.469755 0 0 0
17 1 -0.04303213776600649 -4.63815 0.394721 -1.456949 0 0 0
19 1 -0.2281113047250423 -5.920806 0.372055 -1.088332 0 0 0
24 2 0.111516014068822 -3.266383 -0.903905 -2.471505 0 0 0
25 2 0.1639165061503199 -4.296793 -1.713952 -1.267466 0 0 0
31 2 0.1763291556244646 -4.175928 1.346007 -1.750676 0 0 0
34 2 0.3097726352932132 -4.133634 -1.554311 2.185145 0 0 0
35 2 0.1454725321538455 -6.532081 1.279261 -1.08624 0 0 0
36 2 0.1523747073942049 -6.402135 -0.556626 -0.765117 0 0 0
1 3 -0.6186780136631029 0.17169 2.057246 -1.802725 0 0 0
3 1 -0.0271417708374082 1.050346 0.444506 -0.274697 0 0 0
4 1 0.05775864488083856 -0.305395 -0.008963 0.123537 0 0 0
5 1 0.008467312147385607 -2.604705 -0.656007 -0.45342 0 0 0
6 1 -0.1012430291239017 -1.339462 -0.192201 -0.812935 0 0 0
8 1 -0.1358655218836775 2.187003 -0.132062 0.311259 0 0 0
9 1 0.2626456569793221 1.257724 1.472379 -1.224712 0 0 0
10 1 -0.1052647679018191 -0.586309 -0.30619 1.466332 0 0 0
11 1 0.2714887827386701 -2.854163 -0.945741 0.902383 0 0 0
15 1 -0.1608807926571586 -1.842972 -0.770883 1.852322 0 0 0
16 1 -0.1638749983058209 2.556443 1.878716 -1.546186 0 0 0
21 2 0.1731345323331722 -1.148607 0.030136 -1.86322 0 0 0
22 2 0.1267874289819849 2.04281 -0.949452 1.021547 0 0 0
23 2 0.1201054866703987 0.182952 -0.156 2.226689 0 0 0
29 2 0.1235045129536105 -2.046613 -0.992006 2.905191 0 0 0
30 2 0.1245138571938818 2.698269 2.677347 -2.281971 0 0 0
33 2 0.3176363130750073 0.470608 2.763201 -2.390447 0 0 0
7 1 0.03260733238167324 3.494118 0.268234 0.005916 0 0 0
13 1 -0.2328582251769099 4.679642 -0.392949 0.686038 0 0 0
14 1 -0.1188032637158855 3.66369 1.284465 -0.938877 0 0 0
18 1 -0.07414817009867927 4.666704 -1.892876 0.565789 0 0 0
20 1 -0.2565454186847702 4.6241 -2.745812 1.592897 0 0 0
26 2 0.1225227476039824 5.607406 0.003244 0.237321 0 0 0
27 2 0.1283520179187939 4.705088 -0.115308 1.754873 0 0 0
28 2 0.1118780789930281 4.669291 1.619038 -1.208331 0 0 0
32 2 0.1216414722902985 4.673208 -2.284922 -0.459296 0 0 0
38 2 0.1270652999558228 4.60538 -2.389875 2.628982 0 0 0
39 4 -0.1799860214530395 -3.6734159115106455 3.7796695291662057 -0.6063800807024878 0 0 0
40 4 -0.1183970209919515 -2.576843092693113 4.156697328239932 -0.3222563076040138 0 0 0

Velocities

37 0 0 0
2 0 0 0
12 0 0 0
17 0 0 0
19 0 0 0
24 0 0 0
25 0 0 0
31 0 0 0
34 0 0 0
35 0 0 0
36 0 0 0
1 0 0 0
3 0 0 0
4 0 0 0
5 0 0 0
6 0 0 0
8 0 0 0
9 0 0 0
10 0 0 0
11 0 0 0
15 0 0 0
16 0 0 0
21 0 0 0
22 0 0 0
23 0 0 0
29 0 0 0
30 0 0 0
33 0 0 0
7 0 0 0
13 0 0 0
14 0 0 0
18 0 0 0
20 0 0 0
26 0 0 0
27 0 0 0
28 0 0 0
32 0 0 0
38 0 0 0
39 0 0 0
40 0 0 0
