
                                 *****************
                                 * O   R   C   A *
                                 *****************

                                            #,                                       
                                            ###                                      
                                            ####                                     
                                            #####                                    
                                            ######                                   
                                           ########,                                 
                                     ,,################,,,,,                         
                               ,,#################################,,                 
                          ,,##########################################,,             
                       ,#########################################, ''#####,          
                    ,#############################################,,   '####,        
                  ,##################################################,,,,####,       
                ,###########''''           ''''###############################       
              ,#####''   ,,,,##########,,,,          '''####'''          '####       
            ,##' ,,,,###########################,,,                        '##       
           ' ,,###''''                  '''############,,,                           
         ,,##''                                '''############,,,,        ,,,,,,###''
      ,#''                                            '''#######################'''  
     '                                                          ''''####''''         
             ,#######,   #######,   ,#######,      ##                                
            ,#'     '#,  ##    ##  ,#'     '#,    #''#        ,####,   ,####,        
            ##       ##  ##   ,#'  ##            #'  '#       #'       #'  '#        
            ##       ##  #######   ##           ,######,      #####,   #    #        
            '#,     ,#'  ##    ##  '#,     ,#' ,#      #,     #,   #   #,  ,#        
             '#######'   ##     ##  '#######'  #'      '#     '####' # '####'        



                #########################################################
                #                        -***-                          #
                #          Department of theory and spectroscopy        #
                #                                                       #
                #                      Frank Neese                      #
                #                                                       #
                #     Directorship, Architecture, Infrastructure        #
                #                    SHARK, DRIVERS                     #
                #        Core code/Algorithms in most modules           #
                #                                                       #
                #        Max Planck Institute fuer Kohlenforschung      #
                #                Kaiser Wilhelm Platz 1                 #
                #                 D-45470 Muelheim/Ruhr                 #
                #                      Germany                          #
                #                                                       #
                #                  All rights reserved                  #
                #                        -***-                          #
                #########################################################


                         Program Version 6.0.1  -  RELEASE   -


 With contributions from (in alphabetic order):
[Max-Planck-Institut fuer Kohlenforschung]                               
  Daniel Aravena         : Magnetic Suceptibility                        
  Michael Atanasov       : Ab Initio Ligand Field Theory (pilot matlab implementation)
  Alexander A. Auer      : GIAO ZORA, VPT2 properties, NMR spectrum      
  Ute Becker             : All parallelization in ORCA, NUMFREQ, NUMCALC 
  Giovanni Bistoni       : ED, misc. LED, open-shell LED, HFLD           
  Martin Brehm           : Molecular dynamics                            
  Dmytro Bykov           : pre 5.0 version of the SCF Hessian            
  Marcos Casanova-Páez   : Triplet and SCS-CIS(D). UHF-(DLPNO)-IP/EA/STEOM-CCSD. UHF-CVS-IP/STEOM-CCSD   
  Vijay G. Chilkuri      : MRCI spin determinant printing, contributions to CSF-ICE 
  Pauline Colinet        : FMM embedding                                 
  Dipayan Datta          : RHF DLPNO-CCSD density                        
  Achintya Kumar Dutta   : EOM-CC, STEOM-CC                              
  Nicolas Foglia         : Exact transition moments, OPA infrastructure, MCD improvements    
  Dmitry Ganyushin       : Spin-Orbit,Spin-Spin,Magnetic field MRCI      
  Miquel Garcia-Rates    : C-PCM and meta-GGA Hessian, CCSD/C-PCM, Gaussian charge scheme 
  Tiago L. C. Gouveia    : GS-ROHF, GS-ROCIS                             
  Yang Guo               : DLPNO-NEVPT2, F12-NEVPT2, CIM, IAO-localization        
  Andreas Hansen         : Spin unrestricted coupled pair/coupled cluster methods 
  Ingolf Harden          : AUTO-CI MPn and infrastructure                
  Benjamin Helmich-Paris : MC-RPA, TRAH-(SCF,CASSCF), AVAS, COSX integrals, SCF dyn. polar. 
  Lee Huntington         : MR-EOM, pCC                                   
  Robert Izsak           : Overlap fitted RIJCOSX, COSX-SCS-MP3, EOM     
  Riya Kayal             : Wick's Theorem for AUTO-CI, AUTO-CI UHF-CCSDT 
  Emily Kempfer          : AUTO-CI, RHF CISDT and CCSDT                  
  Christian Kollmar      : KDIIS, OOCD, Brueckner-CCSD(T), CCSD density, CASPT2, CASPT2-K, improved NEVPT2 
  Axel Koslowski         : Symmetry handling                             
  Simone Kossmann        : meta-GGA functionals, TD-DFT gradient, OOMP2, (MP2 Hessian; deprecated post 5.0) 
  Lucas Lang             : DCDCAS                                        
  Marvin Lechner         : AUTO-CI (C++ implementation), FIC-MRCC        
  Spencer Leger          : CASSCF response                               
  Dagmar Lenk            : GEPOL surface, SMD, ORCA-2-JSON               
  Dimitrios Liakos       : Extrapolation schemes; Compound Job, initial MDCI parallelization 
  Dimitrios Manganas     : Further ROCIS development; embedding schemes. LFT, Crystal Embedding 
  Dimitrios Pantazis     : SARC Basis sets                               
  Anastasios Papadopoulos: AUTO-CI, single reference methods and gradients 
  Taras Petrenko         : pre 6.0 DFT Hessian and TD-DFT gradient, (ASA, deprecated), ECA, 1-Electron XAS/XES, NRVS 
  Peter Pinski           : DLPNO-MP2, DLPNO-MP2 Gradient                 
  Christoph Reimann      : Effective Core Potentials                     
  Marius Retegan         : Local ZFS, SOC                                
  Christoph Riplinger    : Optimizer, TS searches, QM/MM, DLPNO-CCSD(T), (RO)-DLPNO pert. Triples 
  Michael Roemelt        : Original ROCIS implementation                 
  Masaaki Saitow         : Open-shell DLPNO-CCSD energy and density      
  Barbara Sandhoefer     : DKH picture change effects                    
  Kantharuban Sivalingam : CASSCF convergence/infrastructure, NEVPT2 and variants, FIC-MRCI 
  Bernardo de Souza      : ESD, SOC TD-DFT                               
  Georgi L. Stoychev     : AutoAux, RI-MP2 NMR, DLPNO-MP2 response, X2C  
  Van Anh Tran           : RI-MP2 g-tensors                              
  Willem Van den Heuvel  : Paramagnetic NMR                              
  Zikuan Wang            : NOTCH, Electric field optimization            
  Frank Wennmohs         : Technical directorship and infrastructure     
  Hang Xu                : AUTO-CI-Response properties                   
                                                                         
[FACCTs GmbH]                                                            
  Markus Bursch, Miquel Garcia-Rates, Christoph Riplinger, Bernardo de Souza, Georgi L. Stoychev 
                                                                 
  APM, Basis sets (HGBS, AHGBS, def-TZVP (Ac-Lr), def2-XVPD (La-Lu)), CI-OPT, improved COSX, DLPNO-Multilevel,           
  DOCKER, DRACO, updates on ESD, GOAT, IRC, LR-CPCM, MBIS, meta-GGA TD-DFT gradient, ML-optimized integration grids, 
  MM, NACMEs, nearIR, NEB, NEB-TS, NL-DFT gradient (VV10), 2- and 3-layer-ONIOM, interface openCOSMO-RS, QMMM,   
  Crystal-QMMM, SF, symmetry and pop. for TD-DFT, r2SCAN hybrids, SOLVATOR                                   
                                                                         
[Other institutions]                                                     
  V. Asgeirsson          : NEB                                           
  Christoph Bannwarth    : sTDA-DFT, sTD-DFT, PBEh-3c, B97-3c, D3        
  Sebastian Ehlert       : rSCAN, r2SCAN, r2SCAN-3c, D4, dhf basis sets  
  Marvin Friede          : D4 for Fr, Ra, Ac-Lr                          
  Lars Goerigk           : TD-DFT with DH, B97 family of functionals     
  Stefan Grimme          : VdW corrections, initial TS optimization, DFT functionals, gCP, sTDA/sTD-DF 
  Waldemar Hujo          : DFT-NL                                        
  H. Jonsson             : NEB                                           
  Holger Kruse           : gCP                                           
  Marcel Mueller         : wB97X-3c, vDZP basis set                      
  Hagen Neugebauer       : wr2SCAN                                       
  Tobias Risthaus        : range-separated hybrid DFT                    
  Lukas Wittmann         : regularized MP2, r2SCAN double-hybrids, wr2SCAN        
                                                                         
We gratefully acknowledge several colleagues who have allowed us to      
interface, adapt or use parts of their codes:                            
  Ed Valeev, F. Pavosevic, A. Kumar             : LibInt (2-el integral package), F12 methods 
  Garnet Chan, S. Sharma, J. Yang, R. Olivares  : DMRG                   
  Ulf Ekstrom                                   : XCFun DFT Library      
  Mihaly Kallay                                 : mrcc  (arbitrary order and MRCC methods)
  Frank Weinhold                                : gennbo (NPA and NBO analysis)           
  Simon Mueller                                 : openCOSMO-RS                            
  Christopher J. Cramer and Donald G. Truhlar   : smd solvation model                     
  S Lehtola, MJT Oliveira, MAL Marques          : LibXC Library                           
  Liviu Ungur et al                             : ANISO software                          


 Your calculation uses the libint2 library for the computation of 2-el integrals
 For citations please refer to: http://libint.valeyev.net

 Your ORCA version has been built with support for libXC version: 6.2.2
 For citations please refer to: https://libxc.gitlab.io

 This ORCA versions uses:
   CBLAS   interface :  Fast vector & matrix operations
   LAPACKE interface :  Fast linear algebra routines
   SCALAPACK package :  Parallel linear algebra routines
   Shared memory     :  Shared parallel matrices
   BLAS/LAPACK       :  OpenBLAS 0.3.27  USE64BITINT DYNAMIC_ARCH NO_AFFINITY SkylakeX SINGLE_THREADED
        Core in use  :  SkylakeX
   Copyright (c) 2011-2014, The OpenBLAS Project


NOTE: MaxCore=3500 MB was set to SCF,MP2,MDCI,CIPSI,MRCI and CIS
      => If you want to overwrite this, your respective input block should be placed after the MaxCore statement
Your calculation utilizes the atom-pairwise dispersion correction
with the zero-damping scheme (D30)


XCFun DFT library Copyright 2009-2010 Ulf Ekstrom and contributors.
See http://admol.org/xcfun for more information.
This is free software; see the source code for copying conditions.
There is ABSOLUTELY NO WARRANTY; not even for MERCHANTABILITY or FITNESS FOR A PARTICULAR PURPOSE.
For details see the documentation.
Scientific users of this library should cite U. Ekstrom, L. Visscher, R. Bast, A. J. Thorvaldsen and K. Ruud;
J.Chem.Theor.Comp. 2010, DOI: 10.1021/ct100117s
XCFun Version 0.99 

Warning: RI is on but no J-basis has been assigned. Assigning Def2/J (nothing to worry about!)
================================================================================

----- Orbital basis set information -----
Your calculation utilizes the basis: def2-SVP
   F. Weigend and R. Ahlrichs, Phys. Chem. Chem. Phys. 7, 3297 (2005).

----- AuxJ basis set information -----
Your calculation utilizes the auxiliary basis: def2/J
   F. Weigend, Phys. Chem. Chem. Phys. 8, 1057 (2006).

================================================================================
                                        WARNINGS
                       Please study these warnings very carefully!
================================================================================


WARNING: Gradients are needed
  ===> : At least TightSCF should be used for SCF convergence

WARNING: your system is open-shell and RHF/RKS was chosen
  ===> : WILL SWITCH to UHF/UKS


WARNING: Geometry Optimization
  ===> : Switching off AutoStart
         For restart on a previous wavefunction, please use MOREAD

WARNING: TRAH does not support fractional occupations!
  ===> : Turning TRAH off

WARNING: Smearing is incompatible with SOSCF, disabling SOSCF
================================================================================
                                       INPUT FILE
================================================================================
NAME = honokiol_o2_4.inp
|  1> ! wB97X-D3 def2-SVP OPT NormalSCF
|  2> 
|  3> %pal
|  4> nprocs 28
|  5> end
|  6> 
|  7> %maxcore 3500
|  8> 
|  9> %scf
| 10>  SmearTemp 500 
| 11> end
| 12> 
| 13> * xyz -1 2
| 14> O 0.17169 2.05725 -1.80272
| 15> O -4.09357 -1.39903 1.23266
| 16> C 1.05035 0.444506 -0.274697
| 17> C -0.305395 -0.008963 0.123537
| 18> C -2.60471 -0.656007 -0.45342
| 19> C -1.33946 -0.192201 -0.812935
| 20> C 3.49412 0.268234 0.005916
| 21> C 2.187 -0.132062 0.311259
| 22> C 1.25772 1.47238 -1.22471
| 23> C -0.586309 -0.30619 1.46633
| 24> C -2.85416 -0.945741 0.902383
| 25> C -3.71693 -0.800485 -1.46975
| 26> C 4.67964 -0.392949 0.686038
| 27> C 3.66369 1.28446 -0.938877
| 28> C -1.84297 -0.770883 1.85232
| 29> C 2.55644 1.87872 -1.54619
| 30> C -4.63815 0.394721 -1.45695
| 31> C 4.6667 -1.89288 0.565789
| 32> C -5.92081 0.372055 -1.08833
| 33> C 4.6241 -2.74581 1.5929
| 34> H -1.14861 0.030136 -1.86322
| 35> H 2.04281 -0.949452 1.02155
| 36> H 0.182952 -0.156 2.22669
| 37> H -3.26638 -0.903905 -2.47151
| 38> H -4.29679 -1.71395 -1.26747
| 39> H 5.60741 0.003244 0.237321
| 40> H 4.70509 -0.115308 1.75487
| 41> H 4.66929 1.61904 -1.20833
| 42> H -2.04661 -0.992006 2.90519
| 43> H 2.69827 2.67735 -2.28197
| 44> H -4.17593 1.34601 -1.75068
| 45> H 4.67321 -2.28492 -0.459296
| 46> H 0.470608 2.7632 -2.39045
| 47> H -4.13363 -1.55431 2.18514
| 48> H -6.53208 1.27926 -1.08624
| 49> H -6.40214 -0.556626 -0.765117
| 50> H 4.60897 -3.8286 1.43968
| 51> H 4.60538 -2.38987 2.62898
| 52> O 2.09083 -2.04291 3.35858
| 53> O 1.93261 -1.14798 4.13419
| 54> *
| 55> 
| 56>                          ****END OF INPUT****
================================================================================

                       *****************************
                       * Geometry Optimization Run *
                       *****************************

Geometry optimization settings:
Update method            Update   .... BFGS
Choice of coordinates    CoordSys .... (2022) Redundant Internals
Initial Hessian          InHess   .... Almloef's Model
Max. no of cycles        MaxIter  .... 120

Convergence Tolerances:
Energy Change            TolE     ....  5.0000e-06 Eh
Max. Gradient            TolMAXG  ....  3.0000e-04 Eh/bohr
RMS Gradient             TolRMSG  ....  1.0000e-04 Eh/bohr
Max. Displacement        TolMAXD  ....  4.0000e-03 bohr
RMS Displacement         TolRMSD  ....  2.0000e-03 bohr
Strict Convergence                .... False

------------------------------------------------------------------------------
                        ORCA OPTIMIZATION COORDINATE SETUP
------------------------------------------------------------------------------

The optimization will be done in redundant internal coordinates (2022)
Making redundant internal coordinates   ...  (2022 redundants) done
Evaluating the initial hessian          ...  (Almloef) done
Evaluating the coordinates              ...  done
Calculating the B-matrix                .... done
Calculating the G-matrix                .... done
Diagonalizing the G-matrix              .... done
Small eigenvalue found = 4.491e-03
Small eigenvalue found = 7.442e-03
Small eigenvalue found = 1.188e-02
Small eigenvalue found = 1.920e-02
Small eigenvalue found = 2.779e-02
The first mode is                       ....   87
The number of degrees of freedom        ....  114

    -----------------------------------------------------------------
                    Redundant Internal Coordinates


    -----------------------------------------------------------------
         Definition                    Initial Value    Approx d2E/dq
    -----------------------------------------------------------------
      1. B(C   3,C   2)                  1.4840         0.442344   
      2. B(C   5,C   4)                  1.3947         0.614072   
      3. B(C   5,C   3)                  1.4071         0.586819   
      4. B(C   7,C   2)                  1.4028         0.596175   
      5. B(C   7,C   6)                  1.4007         0.600656   
      6. B(C   8,C   2)                  1.4149         0.570099   
      7. B(C   8,O   0)                  1.3622         0.619733   
      8. B(C   9,C   3)                  1.4037         0.594148   
      9. B(C  10,O   1)                  1.3604         0.623877   
     10. B(C  10,C   4)                  1.4087         0.583364   
     11. B(C  11,C   4)                  1.5136         0.396846   
     12. B(C  12,C   6)                  1.5183         0.390004   
     13. B(C  13,C   6)                  1.3979         0.606941   
     14. B(C  14,C  10)                  1.3984         0.605860   
     15. B(C  14,C   9)                  1.3943         0.614962   
     16. B(C  15,C  13)                  1.3957         0.611851   
     17. B(C  15,C   8)                  1.3983         0.606119   
     18. B(C  16,C  11)                  1.5091         0.403414   
     19. B(C  17,C  12)                  1.5048         0.409811   
     20. B(C  18,C  16)                  1.3348         0.765340   
     21. B(C  19,C  17)                  1.3358         0.762555   
     22. B(H  20,C   5)                  1.0904         0.359581   
     23. B(H  21,C   7)                  1.0924         0.356883   
     24. B(H  22,C   9)                  1.0920         0.357462   
     25. B(H  23,C  11)                  1.1033         0.342961   
     26. B(H  24,C  11)                  1.1007         0.346201   
     27. B(H  25,C  12)                  1.1041         0.341902   
     28. B(H  26,C  12)                  1.1046         0.341299   
     29. B(H  27,C  13)                  1.0935         0.355477   
     30. B(H  28,C  14)                  1.0949         0.353620   
     31. B(H  29,C  15)                  1.0951         0.353384   
     32. B(H  30,C  16)                  1.0977         0.350098   
     33. B(H  31,C  17)                  1.0975         0.350296   
     34. B(H  32,O   0)                  0.9660         0.508632   
     35. B(H  33,O   1)                  0.9659         0.508835   
     36. B(H  34,C  18)                  1.0939         0.354942   
     37. B(H  35,C  18)                  1.0948         0.353802   
     38. B(H  36,C  19)                  1.0937         0.355262   
     39. B(H  37,C  19)                  1.0957         0.352669   
     40. B(O  38,C  19)                  3.1669         0.000818   
     41. B(O  38,H  22)                  2.9123         0.000399   
     42. B(O  38,H  37)                  2.6411         0.001081   
     43. B(O  38,H  21)                  2.5806         0.001350   
     44. B(O  39,H  37)                  3.3093         0.000093   
     45. B(O  39,H  21)                  3.1209         0.000186   
     46. B(O  39,H  22)                  2.7720         0.000668   
     47. B(O  39,O  38)                  1.1948         1.026763   
     48. A(C   8,O   0,H  32)          108.9796         0.368691   
     49. A(C  10,O   1,H  33)          109.3151         0.369139   
     50. A(C   3,C   2,C   7)          120.1702         0.405856   
     51. A(C   7,C   2,C   8)          117.4059         0.424585   
     52. A(C   3,C   2,C   8)          122.4149         0.402665   
     53. A(C   2,C   3,C   5)          122.1802         0.404724   
     54. A(C   5,C   3,C   9)          117.5178         0.426527   
     55. A(C   2,C   3,C   9)          120.2810         0.405612   
     56. A(C   5,C   4,C  11)          121.6874         0.400244   
     57. A(C  10,C   4,C  11)          119.7703         0.396651   
     58. A(C   5,C   4,C  10)          118.4985         0.428602   
     59. A(C   4,C   5,H  20)          118.3514         0.352250   
     60. A(C   3,C   5,H  20)          119.0704         0.349559   
     61. A(C   3,C   5,C   4)          122.5773         0.429057   
     62. A(C   7,C   6,C  13)          117.9228         0.429953   
     63. A(C   7,C   6,C  12)          120.4342         0.397475   
     64. A(C  12,C   6,C  13)          121.6428         0.398202   
     65. A(C   2,C   7,H  21)          118.1759         0.350048   
     66. A(C   6,C   7,H  21)          118.6023         0.350491   
     67. A(C   2,C   7,C   6)          123.2042         0.428574   
     68. A(O   0,C   8,C   2)          118.6821         0.424756   
     69. A(C   2,C   8,C  15)          120.1059         0.425844   
     70. A(O   0,C   8,C  15)          121.2095         0.429444   
     71. A(C   3,C   9,C  14)          121.0481         0.430125   
     72. A(C  14,C   9,H  22)          119.2081         0.351984   
     73. A(C   3,C   9,H  22)          119.7350         0.349943   
     74. A(O   1,C  10,C   4)          117.6152         0.427018   
     75. A(O   1,C  10,C  14)          122.3809         0.429925   
     76. A(C   4,C  10,C  14)          120.0031         0.427569   
     77. A(C   4,C  11,C  16)          111.5484         0.372010   
     78. A(H  23,C  11,H  24)          107.7102         0.286853   
     79. A(C  16,C  11,H  24)          109.5196         0.326324   
     80. A(C   4,C  11,H  24)          110.0558         0.325444   
     81. A(C  16,C  11,H  23)          109.3439         0.325819   
     82. A(C   4,C  11,H  23)          108.5758         0.324941   
     83. A(C   6,C  12,C  17)          113.0517         0.371903   
     84. A(H  25,C  12,H  26)          106.4807         0.286078   
     85. A(C   6,C  12,H  26)          109.9977         0.323756   
     86. A(C  17,C  12,H  25)          109.4158         0.326498   
     87. A(C   6,C  12,H  25)          108.5301         0.323850   
     88. A(C  17,C  12,H  26)          109.1510         0.326403   
     89. A(C   6,C  13,C  15)          120.4899         0.431381   
     90. A(C  15,C  13,H  27)          119.4756         0.351351   
     91. A(C   6,C  13,H  27)          120.0345         0.350873   
     92. A(C  10,C  14,H  28)          119.5690         0.350458   
     93. A(C   9,C  14,H  28)          120.0741         0.351342   
     94. A(C   9,C  14,C  10)          120.3542         0.431636   
     95. A(C  13,C  15,H  29)          120.0073         0.351001   
     96. A(C   8,C  15,H  29)          119.1231         0.350443   
     97. A(C   8,C  15,C  13)          120.8690         0.431276   
     98. A(C  11,C  16,C  18)          125.1355         0.417367   
     99. A(C  18,C  16,H  30)          119.5558         0.364034   
    100. A(C  11,C  16,H  30)          115.2814         0.326926   
    101. A(C  12,C  17,C  19)          125.1204         0.418267   
    102. A(C  19,C  17,H  31)          119.3595         0.363842   
    103. A(C  12,C  17,H  31)          115.5080         0.327805   
    104. A(H  34,C  18,H  35)          117.2091         0.289380   
    105. A(C  16,C  18,H  35)          121.2264         0.364690   
    106. A(C  16,C  18,H  34)          121.5616         0.364891   
    107. A(C  17,C  19,O  38)          108.2100         0.168972   
    108. A(H  36,C  19,H  37)          116.9918         0.289275   
    109. A(C  17,C  19,H  37)          121.3470         0.364263   
    110. A(C  17,C  19,H  36)          121.6610         0.364720   
    111. A(H  37,C  19,O  38)           52.1940         0.147089   
    112. A(H  36,C  19,O  38)          106.6657         0.147186   
    113. A(C  19,O  38,O  39)          129.3547         0.173126   
    114. D(C   9,C   3,C   2,C   8)   -139.5968         0.013348   
    115. D(C   5,C   3,C   2,C   8)     42.1123         0.013348   
    116. D(C   5,C   3,C   2,C   7)   -139.0087         0.013348   
    117. D(C   9,C   3,C   2,C   7)     39.2822         0.013348   
    118. D(H  20,C   5,C   4,C  11)     -2.4894         0.026063   
    119. D(H  20,C   5,C   3,C   2)     -1.6088         0.023685   
    120. D(C   3,C   5,C   4,C  11)    177.8570         0.026063   
    121. D(C   3,C   5,C   4,C  10)      0.2712         0.026063   
    122. D(H  20,C   5,C   4,C  10)    179.9248         0.026063   
    123. D(C   4,C   5,C   3,C   9)     -0.2934         0.023685   
    124. D(C   4,C   5,C   3,C   2)    178.0425         0.023685   
    125. D(H  20,C   5,C   3,C   9)   -179.9446         0.023685   
    126. D(C   6,C   7,C   2,C   3)   -178.4804         0.024485   
    127. D(C   6,C   7,C   2,C   8)      0.4536         0.024485   
    128. D(H  21,C   7,C   2,C   3)      3.0694         0.024485   
    129. D(H  21,C   7,C   6,C  12)     -2.0027         0.024875   
    130. D(C   2,C   7,C   6,C  13)     -0.5867         0.024875   
    131. D(H  21,C   7,C   6,C  13)    177.8573         0.024875   
    132. D(H  21,C   7,C   2,C   8)   -177.9966         0.024485   
    133. D(C   2,C   7,C   6,C  12)    179.5533         0.024875   
    134. D(C  15,C   8,C   2,C   7)     -0.0883         0.022295   
    135. D(C  15,C   8,C   2,C   3)    178.8200         0.022295   
    136. D(O   0,C   8,C   2,C   7)   -179.5253         0.022295   
    137. D(C  15,C   8,O   0,H  32)     -2.1803         0.028176   
    138. D(O   0,C   8,C   2,C   3)     -0.6170         0.022295   
    139. D(C   2,C   8,O   0,H  32)    177.2502         0.028176   
    140. D(H  22,C   9,C   3,C   5)   -178.6471         0.024311   
    141. D(C  14,C   9,C   3,C   5)      0.2666         0.024311   
    142. D(H  22,C   9,C   3,C   2)      2.9840         0.024311   
    143. D(C  14,C   9,C   3,C   2)   -178.1024         0.024311   
    144. D(C   4,C  10,O   1,H  33)   -179.7415         0.028582   
    145. D(C  14,C  10,C   4,C  11)   -177.8507         0.023393   
    146. D(C  14,C  10,C   4,C   5)     -0.2174         0.023393   
    147. D(O   1,C  10,C   4,C  11)      2.4711         0.023393   
    148. D(O   1,C  10,C   4,C   5)   -179.8955         0.023393   
    149. D(C  14,C  10,O   1,H  33)      0.5885         0.028582   
    150. D(H  24,C  11,C   4,C   5)    140.9906         0.011696   
    151. D(H  23,C  11,C   4,C  10)   -159.1205         0.011696   
    152. D(H  23,C  11,C   4,C   5)     23.3238         0.011696   
    153. D(C  16,C  11,C   4,C  10)     80.3216         0.011696   
    154. D(C  16,C  11,C   4,C   5)    -97.2341         0.011696   
    155. D(H  26,C  12,C   6,C   7)    -68.9642         0.011316   
    156. D(H  25,C  12,C   6,C  13)     -4.9471         0.011316   
    157. D(H  25,C  12,C   6,C   7)    174.9076         0.011316   
    158. D(C  17,C  12,C   6,C  13)   -126.5247         0.011316   
    159. D(C  17,C  12,C   6,C   7)     53.3300         0.011316   
    160. D(H  27,C  13,C   6,C  12)      0.2795         0.025427   
    161. D(H  27,C  13,C   6,C   7)   -179.5787         0.025427   
    162. D(C  15,C  13,C   6,C  12)   -179.7891         0.025427   
    163. D(C  15,C  13,C   6,C   7)      0.3527         0.025427   
    164. D(H  28,C  14,C  10,C   4)    179.6009         0.025332   
    165. D(H  28,C  14,C  10,O   1)     -0.7367         0.025332   
    166. D(C   9,C  14,C  10,C   4)      0.1998         0.025332   
    167. D(C   9,C  14,C  10,O   1)    179.8621         0.025332   
    168. D(H  28,C  14,C   9,H  22)     -0.7067         0.026143   
    169. D(H  28,C  14,C   9,C   3)   -179.6260         0.026143   
    170. D(C  10,C  14,C   9,H  22)    178.6914         0.026143   
    171. D(C  10,C  14,C   9,C   3)     -0.2278         0.026143   
    172. D(C   8,C  15,C  13,C   6)     -0.0125         0.025864   
    173. D(H  29,C  15,C   8,C   2)   -179.8595         0.025355   
    174. D(H  29,C  15,C   8,O   0)     -0.4370         0.025355   
    175. D(C  13,C  15,C   8,C   2)     -0.1232         0.025355   
    176. D(C  13,C  15,C   8,O   0)    179.2993         0.025355   
    177. D(H  29,C  15,C  13,H  27)     -0.3468         0.025864   
    178. D(H  29,C  15,C  13,C   6)    179.7214         0.025864   
    179. D(C   8,C  15,C  13,H  27)    179.9193         0.025864   
    180. D(H  30,C  16,C  11,H  23)    -56.1564         0.012069   
    181. D(H  30,C  16,C  11,C   4)     63.9506         0.012069   
    182. D(C  18,C  16,C  11,H  24)      7.9550         0.012069   
    183. D(C  18,C  16,C  11,H  23)    125.7631         0.012069   
    184. D(C  18,C  16,C  11,C   4)   -114.1299         0.012069   
    185. D(H  31,C  17,C  12,H  25)    -62.0054         0.012439   
    186. D(H  31,C  17,C  12,C   6)     59.0719         0.012439   
    187. D(C  19,C  17,C  12,H  26)      3.1143         0.012439   
    188. D(C  19,C  17,C  12,H  25)    119.2708         0.012439   
    189. D(C  19,C  17,C  12,C   6)   -119.6519         0.012439   
    190. D(H  35,C  18,C  16,H  30)   -178.3788         0.041939   
    191. D(H  35,C  18,C  16,C  11)     -0.3741         0.041939   
    192. D(H  34,C  18,C  16,H  30)      0.9903         0.041939   
    193. D(H  34,C  18,C  16,C  11)    178.9949         0.041939   
    194. D(O  38,C  19,C  17,C  12)     55.6248         0.045288   
    195. D(H  37,C  19,C  17,H  31)   -179.3285         0.045288   
    196. D(H  37,C  19,C  17,C  12)     -0.6500         0.045288   
    197. D(H  36,C  19,C  17,H  31)      0.8340         0.045288   
    198. D(H  36,C  19,C  17,C  12)    179.5125         0.045288   
    199. D(O  39,O  38,C  19,H  37)     39.5982         0.001500   
    200. D(O  39,O  38,C  19,H  36)    151.1519         0.001500   
    201. D(O  39,O  38,C  19,C  17)    -76.3724         0.001500   
    -----------------------------------------------------------------

Number of atoms                         .... 40
Number of degrees of freedom            .... 201


         *************************************************************
         *                GEOMETRY OPTIMIZATION CYCLE   1            *
         *************************************************************
---------------------------------
CARTESIAN COORDINATES (ANGSTROEM)
---------------------------------
  O      0.171690    2.057250   -1.802720
  O     -4.093570   -1.399030    1.232660
  C      1.050350    0.444506   -0.274697
  C     -0.305395   -0.008963    0.123537
  C     -2.604710   -0.656007   -0.453420
  C     -1.339460   -0.192201   -0.812935
  C      3.494120    0.268234    0.005916
  C      2.187000   -0.132062    0.311259
  C      1.257720    1.472380   -1.224710
  C     -0.586309   -0.306190    1.466330
  C     -2.854160   -0.945741    0.902383
  C     -3.716930   -0.800485   -1.469750
  C      4.679640   -0.392949    0.686038
  C      3.663690    1.284460   -0.938877
  C     -1.842970   -0.770883    1.852320
  C      2.556440    1.878720   -1.546190
  C     -4.638150    0.394721   -1.456950
  C      4.666700   -1.892880    0.565789
  C     -5.920810    0.372055   -1.088330
  C      4.624100   -2.745810    1.592900
  H     -1.148610    0.030136   -1.863220
  H      2.042810   -0.949452    1.021550
  H      0.182952   -0.156000    2.226690
  H     -3.266380   -0.903905   -2.471510
  H     -4.296790   -1.713950   -1.267470
  H      5.607410    0.003244    0.237321
  H      4.705090   -0.115308    1.754870
  H      4.669290    1.619040   -1.208330
  H     -2.046610   -0.992006    2.905190
  H      2.698270    2.677350   -2.281970
  H     -4.175930    1.346010   -1.750680
  H      4.673210   -2.284920   -0.459296
  H      0.470608    2.763200   -2.390450
  H     -4.133630   -1.554310    2.185140
  H     -6.532080    1.279260   -1.086240
  H     -6.402140   -0.556626   -0.765117
  H      4.608970   -3.828600    1.439680
  H      4.605380   -2.389870    2.628980
  O      2.090830   -2.042910    3.358580
  O      1.932610   -1.147980    4.134190

----------------------------
CARTESIAN COORDINATES (A.U.)
----------------------------
  NO LB      ZA    FRAG     MASS         X           Y           Z
   0 O     8.0000    0    15.999    0.324447    3.887639   -3.406647
   1 O     8.0000    0    15.999   -7.735726   -2.643784    2.329390
   2 C     6.0000    0    12.011    1.984874    0.839995   -0.519102
   3 C     6.0000    0    12.011   -0.577113   -0.016938    0.233451
   4 C     6.0000    0    12.011   -4.922189   -1.239674   -0.856840
   5 C     6.0000    0    12.011   -2.531213   -0.363207   -1.536225
   6 C     6.0000    0    12.011    6.602930    0.506889    0.011180
   7 C     6.0000    0    12.011    4.132831   -0.249561    0.588194
   8 C     6.0000    0    12.011    2.376746    2.782395   -2.314366
   9 C     6.0000    0    12.011   -1.107963   -0.578615    2.770962
  10 C     6.0000    0    12.011   -5.393581   -1.787191    1.705257
  11 C     6.0000    0    12.011   -7.023980   -1.512697   -2.777425
  12 C     6.0000    0    12.011    8.843238   -0.742566    1.296424
  13 C     6.0000    0    12.011    6.923371    2.427278   -1.774220
  14 C     6.0000    0    12.011   -3.482709   -1.456758    3.500378
  15 C     6.0000    0    12.011    4.830971    3.550266   -2.921876
  16 C     6.0000    0    12.011   -8.764833    0.745915   -2.753236
  17 C     6.0000    0    12.011    8.818785   -3.577025    1.069186
  18 C     6.0000    0    12.011  -11.188709    0.703082   -2.056646
  19 C     6.0000    0    12.011    8.738283   -5.188829    3.010145
  20 H     1.0000    0     1.008   -2.170558    0.056949   -3.520976
  21 H     1.0000    0     1.008    3.860351   -1.794204    1.930450
  22 H     1.0000    0     1.008    0.345729   -0.294797    4.207834
  23 H     1.0000    0     1.008   -6.172564   -1.708133   -4.670477
  24 H     1.0000    0     1.008   -8.119756   -3.238896   -2.395171
  25 H     1.0000    0     1.008   10.596469    0.006130    0.448472
  26 H     1.0000    0     1.008    8.891332   -0.217901    3.316224
  27 H     1.0000    0     1.008    8.823679    3.059542   -2.283413
  28 H     1.0000    0     1.008   -3.867532   -1.874620    5.490013
  29 H     1.0000    0     1.008    5.098991    5.059458   -4.312298
  30 H     1.0000    0     1.008   -7.891364    2.543590   -3.308306
  31 H     1.0000    0     1.008    8.831087   -4.317873   -0.867944
  32 H     1.0000    0     1.008    0.889320    5.221691   -4.517296
  33 H     1.0000    0     1.008   -7.811429   -2.937220    4.129316
  34 H     1.0000    0     1.008  -12.343842    2.417451   -2.052696
  35 H     1.0000    0     1.008  -12.098291   -1.051871   -1.445862
  36 H     1.0000    0     1.008    8.709691   -7.235005    2.720601
  37 H     1.0000    0     1.008    8.702907   -4.516200    4.968052
  38 O     8.0000    0    15.999    3.951096   -3.860540    6.346796
  39 O     8.0000    0    15.999    3.652104   -2.169368    7.812487

--------------------------------
INTERNAL COORDINATES (ANGSTROEM)
--------------------------------
 O      0   0   0     0.000000000000     0.00000000     0.00000000
 O      1   0   0     6.273104976836     0.00000000     0.00000000
 C      1   2   0     2.389108807414    64.44752623     0.00000000
 C      3   1   2     1.484004365810    92.40215559   359.12208104
 C      2   1   3     2.368892788737    19.16907795   264.50136248
 C      5   2   1     1.394713089980   149.08605384    47.30340175
 C      3   1   2     2.466136104649   119.04307843   180.43286531
 C      7   3   1     1.400726215099    28.42040436   180.00779755
 C      1   2   3     1.362214974921    95.75072133     0.18622401
 C      4   3   1     1.403691421137   120.28099236   220.09430860
 C      2   1   3     1.360401029972    22.99855626     3.26976214
 C      5   2   1     1.513550094904    89.20613490   229.26969973
 C      7   3   1     1.518284085662   148.85324233   179.26318151
 C      7   3   1     1.397892370973    89.50366465   359.48939133
 C     10   4   3     1.394318734461   121.04811955   181.89763239
 C     14   7   3     1.395699319363   120.48993951     0.07350324
 C     12   5   2     1.509081677987   111.54839197    81.57886834
 C     13   7   3     1.504799079732   113.05166294    53.74096847
 C     17  12   5     1.334770065426   125.13546892   245.87008318
 C     18  13   7     1.335762460627   125.12044144   240.34810303
 H      6   5   2     1.090392610620   118.35141301   179.82135391
 H      8   7   3     1.092442434585   118.60228493   178.44396639
 H     10   4   3     1.092001305778   119.73503627     2.98401560
 H     12   5   2     1.103274261687   108.57582802   202.13676684
 H     12   5   2     1.100714824205   110.05575445   319.80354641
 H     13   7   3     1.104116394334   108.53005844   175.31858898
 H     13   7   3     1.104596791415   109.99770879   291.44679911
 H     14   7   3     1.093517286379   120.03445985   180.14206741
 H     15  10   4     1.094942860440   120.07406007   180.37403772
 H     16  14   7     1.095124574740   120.00731731   179.72142863
 H     17  12   5     1.097668166078   115.28142282    63.95056746
 H     18  13   7     1.097514008532   115.50802162    59.07192965
 H      1   2   3     0.965993750562   155.15440951   185.65381113
 H      2   1   3     0.965885517233   126.43655883    49.87276035
 H     19  17  12     1.093927005346   121.56158334   178.99491645
 H     19  17  12     1.094803001471   121.22644356   359.62591270
 H     20  18  13     1.093681612445   121.66099839   179.51249436
 H     20  18  13     1.095675813551   121.34701835   359.34998701
 O     22   8   7     2.580632778809   154.60723574    69.58262062
 O     39  22   8     1.194782049330   105.54789428    28.50896079

---------------------------
INTERNAL COORDINATES (A.U.)
---------------------------
 O      0   0   0     0.000000000000     0.00000000     0.00000000
 O      1   0   0    11.854450415558     0.00000000     0.00000000
 C      1   2   0     4.514761350152    64.44752623     0.00000000
 C      3   1   2     2.804361832924    92.40215559   359.12208104
 C      2   1   3     4.476558611333    19.16907795   264.50136248
 C      5   2   1     2.635625775457   149.08605384    47.30340175
 C      3   1   2     4.660321846762   119.04307843   180.43286531
 C      7   3   1     2.646988935141    28.42040436   180.00779755
 C      1   2   3     2.574213238128    95.75072133     0.18622401
 C      4   3   1     2.652592362484   120.28099236   220.09430860
 C      2   1   3     2.570785378952    22.99855626     3.26976214
 C      5   2   1     2.860195169339    89.20613490   229.26969973
 C      7   3   1     2.869141115391   148.85324233   179.26318151
 C      7   3   1     2.641633745837    89.50366465   359.48939133
 C     10   4   3     2.634880551528   121.04811955   181.89763239
 C     14   7   3     2.637489478895   120.48993951     0.07350324
 C     12   5   2     2.851751085114   111.54839197    81.57886834
 C     13   7   3     2.843658147270   113.05166294    53.74096847
 C     17  12   5     2.522349875410   125.13546892   245.87008318
 C     18  13   7     2.524225230558   125.12044144   240.34810303
 H      6   5   2     2.060543412523   118.35141301   179.82135391
 H      8   7   3     2.064417018439   118.60228493   178.44396639
 H     10   4   3     2.063583405805   119.73503627     2.98401560
 H     12   5   2     2.084886205192   108.57582802   202.13676684
 H     12   5   2     2.080049569295   110.05575445   319.80354641
 H     13   7   3     2.086477605265   108.53005844   175.31858898
 H     13   7   3     2.087385424183   109.99770879   291.44679911
 H     14   7   3     2.066448193964   120.03445985   180.14206741
 H     15  10   4     2.069142138524   120.07406007   180.37403772
 H     16  14   7     2.069485528786   120.00731731   179.72142863
 H     17  12   5     2.074292219811   115.28142282    63.95056746
 H     18  13   7     2.074000904268   115.50802162    59.07192965
 H      1   2   3     1.825463635641   155.15440951   185.65381113
 H      2   1   3     1.825259104291   126.43655883    49.87276035
 H     19  17  12     2.067222450604   121.56158334   178.99491645
 H     19  17  12     2.068877843375   121.22644356   359.62591270
 H     20  18  13     2.066758725226   121.66099839   179.51249436
 H     20  18  13     2.070527219172   121.34701835   359.34998701
 O     22   8   7     4.876689204169   154.60723574    69.58262062
 O     39  22   8     2.257810862958   105.54789428    28.50896079

---------------------
BASIS SET INFORMATION
---------------------
There are 3 groups of distinct atoms

 Group   1 Type O   : 7s4p1d contracted to 3s2p1d pattern {511/31/1}
 Group   2 Type C   : 7s4p1d contracted to 3s2p1d pattern {511/31/1}
 Group   3 Type H   : 4s1p contracted to 2s1p pattern {31/1}

Atom   0O    basis set group =>   1
Atom   1O    basis set group =>   1
Atom   2C    basis set group =>   2
Atom   3C    basis set group =>   2
Atom   4C    basis set group =>   2
Atom   5C    basis set group =>   2
Atom   6C    basis set group =>   2
Atom   7C    basis set group =>   2
Atom   8C    basis set group =>   2
Atom   9C    basis set group =>   2
Atom  10C    basis set group =>   2
Atom  11C    basis set group =>   2
Atom  12C    basis set group =>   2
Atom  13C    basis set group =>   2
Atom  14C    basis set group =>   2
Atom  15C    basis set group =>   2
Atom  16C    basis set group =>   2
Atom  17C    basis set group =>   2
Atom  18C    basis set group =>   2
Atom  19C    basis set group =>   2
Atom  20H    basis set group =>   3
Atom  21H    basis set group =>   3
Atom  22H    basis set group =>   3
Atom  23H    basis set group =>   3
Atom  24H    basis set group =>   3
Atom  25H    basis set group =>   3
Atom  26H    basis set group =>   3
Atom  27H    basis set group =>   3
Atom  28H    basis set group =>   3
Atom  29H    basis set group =>   3
Atom  30H    basis set group =>   3
Atom  31H    basis set group =>   3
Atom  32H    basis set group =>   3
Atom  33H    basis set group =>   3
Atom  34H    basis set group =>   3
Atom  35H    basis set group =>   3
Atom  36H    basis set group =>   3
Atom  37H    basis set group =>   3
Atom  38O    basis set group =>   1
Atom  39O    basis set group =>   1
---------------------------------
AUXILIARY/J BASIS SET INFORMATION
---------------------------------
There are 3 groups of distinct atoms

 Group   1 Type O   : 12s5p4d2f1g contracted to 6s4p3d1f1g pattern {711111/2111/211/2/1}
 Group   2 Type C   : 12s5p4d2f1g contracted to 6s4p3d1f1g pattern {711111/2111/211/2/1}
 Group   3 Type H   : 5s2p1d contracted to 3s1p1d pattern {311/2/1}

Atom   0O    basis set group =>   1
Atom   1O    basis set group =>   1
Atom   2C    basis set group =>   2
Atom   3C    basis set group =>   2
Atom   4C    basis set group =>   2
Atom   5C    basis set group =>   2
Atom   6C    basis set group =>   2
Atom   7C    basis set group =>   2
Atom   8C    basis set group =>   2
Atom   9C    basis set group =>   2
Atom  10C    basis set group =>   2
Atom  11C    basis set group =>   2
Atom  12C    basis set group =>   2
Atom  13C    basis set group =>   2
Atom  14C    basis set group =>   2
Atom  15C    basis set group =>   2
Atom  16C    basis set group =>   2
Atom  17C    basis set group =>   2
Atom  18C    basis set group =>   2
Atom  19C    basis set group =>   2
Atom  20H    basis set group =>   3
Atom  21H    basis set group =>   3
Atom  22H    basis set group =>   3
Atom  23H    basis set group =>   3
Atom  24H    basis set group =>   3
Atom  25H    basis set group =>   3
Atom  26H    basis set group =>   3
Atom  27H    basis set group =>   3
Atom  28H    basis set group =>   3
Atom  29H    basis set group =>   3
Atom  30H    basis set group =>   3
Atom  31H    basis set group =>   3
Atom  32H    basis set group =>   3
Atom  33H    basis set group =>   3
Atom  34H    basis set group =>   3
Atom  35H    basis set group =>   3
Atom  36H    basis set group =>   3
Atom  37H    basis set group =>   3
Atom  38O    basis set group =>   1
Atom  39O    basis set group =>   1


           ************************************************************
           *        Program running with 28 parallel MPI-processes    *
           *              working on a common directory               *
           ************************************************************
------------------------------------------------------------------------------
                             ORCA STARTUP CALCULATIONS
                           -- RI-GTO INTEGRALS CHOSEN --
------------------------------------------------------------------------------
------------------------------------------------------------------------------
                   ___                                                        
                  /   \      - P O W E R E D   B Y -                         
                 /     \                                                     
                 |  |  |   _    _      __       _____    __    __             
                 |  |  |  | |  | |    /  \     |  _  \  |  |  /  |          
                  \  \/   | |  | |   /    \    | | | |  |  | /  /          
                 / \  \   | |__| |  /  /\  \   | |_| |  |  |/  /          
                |  |  |   |  __  | /  /__\  \  |    /   |      \           
                |  |  |   | |  | | |   __   |  |    \   |  |\   \          
                \     /   | |  | | |  |  |  |  | |\  \  |  | \   \       
                 \___/    |_|  |_| |__|  |__|  |_| \__\ |__|  \__/        
                                                                              
                      - O R C A' S   B I G   F R I E N D -                    
                                      &                                       
                       - I N T E G R A L  F E E D E R -                       
                                                                              
 v1 FN, 2020, v2 2021, v3 2022-2024                                           
------------------------------------------------------------------------------


----------------------
SHARK INTEGRAL PACKAGE
----------------------

Number of atoms                             ...     40
Number of basis functions                   ...    398
Number of shells                            ...    186
Maximum angular momentum                    ...      2
Integral batch strategy                     ... SHARK/LIBINT Hybrid
RI-J (if used) integral strategy            ... SPLIT-RIJ (Revised 2003 algorithm where possible)
Printlevel                                  ...      1
Contraction scheme used                     ... SEGMENTED contraction
Prescreening option                         ... SCHWARTZ
   Thresh                                   ... 1.000e-10
   Tcut                                     ... 1.000e-11
   Tpresel                                  ... 1.000e-11 
Coulomb Range Separation                    ... NOT USED
Exchange Range Separation                   ... Long Range
   Mu parameter                             ... 2.500e-01
   Scaling (regular/separated)              ... 1.957e-01 8.043e-01
Multipole approximations                    ... NOT USED
Finite Nucleus Model                        ... NOT USED
CABS basis                                  ... NOT available
Auxiliary Coulomb fitting basis             ... AVAILABLE
   # of basis functions in Aux-J            ...   1276
   # of shells in Aux-J                     ...    420
   Maximum angular momentum in Aux-J        ...      4
Auxiliary J/K fitting basis                 ... NOT available
Auxiliary Correlation fitting basis         ... NOT available
Auxiliary 'external' fitting basis          ... NOT available

Checking pre-screening integrals            ... done (  0.0 sec) Dimension = 186
Check shell pair data                       ... done (  0.0 sec)
Shell pair information
Shell pair cut-off parameter TPreSel        ...   1.0e-11
Total number of shell pairs                 ...     17391
Shell pairs after pre-screening             ...     11732
Total number of primitive shell pairs       ...     63175
Primitive shell pairs kept                  ...     26952
          la=0 lb=0:   3642 shell pairs
          la=1 lb=0:   4373 shell pairs
          la=1 lb=1:   1361 shell pairs
          la=2 lb=0:   1388 shell pairs
          la=2 lb=1:    836 shell pairs
          la=2 lb=2:    132 shell pairs

Calculating one electron integrals          ... done (  0.1 sec)
Calculating RI/J V-Matrix + Cholesky decomp.... done (  0.1 sec)
Calculating Nuclear repulsion               ... done (  0.0 sec) ENN=   1668.326010962169 Eh

Diagonalization of the overlap matrix:
Smallest eigenvalue                        ... 2.219e-04
Time for diagonalization                   ...    0.017 sec
Threshold for overlap eigenvalues          ... 1.000e-07
Number of eigenvalues below threshold      ... 0
Time for construction of square roots      ...    0.009 sec
Total time needed                          ...    0.038 sec

-------------------
DFT GRID GENERATION
-------------------

General Integration Accuracy     IntAcc      ... 4.388
Radial Grid Type                 RadialGrid  ... OptM3 with GC (2021)
Angular Grid (max. ang.)         AngularGrid ... 4 (Lebedev-302)
Angular grid pruning method      GridPruning ... 4 (adaptive)
Weight generation scheme         WeightScheme... mBecke (2022)
Basis function cutoff            BFCut       ... 1.0000e-10
Integration weight cutoff        WCut        ... 1.0000e-14
Partially contracted basis set               ... off
Rotationally invariant grid construction     ... off
Angular grids for H and He will be reduced by one unit

Total number of grid points                  ...   189237
Total number of batches                      ...     2978
Average number of points per batch           ...       63
Average number of grid points per atom       ...     4731

--------------------
COSX GRID GENERATION
--------------------

GRIDX 1
-------
General Integration Accuracy     IntAcc      ... 3.816
Radial Grid Type                 RadialGrid  ... OptM3 with GC (2021)
Angular Grid (max. ang.)         AngularGrid ... 1 (Lebedev-50)
Angular grid pruning method      GridPruning ... 4 (adaptive)
Weight generation scheme         WeightScheme... mBecke (2022)
Basis function cutoff            BFCut       ... 1.0000e-10
Integration weight cutoff        WCut        ... 1.0000e-14
Partially contracted basis set               ... on
Rotationally invariant grid construction     ... off
Angular grids for H and He will be reduced by one unit

Total number of grid points                  ...    24047
Total number of batches                      ...      214
Average number of points per batch           ...      112
Average number of grid points per atom       ...      601
UseSFitting                                  ... on

GRIDX 2
-------
General Integration Accuracy     IntAcc      ... 4.020
Radial Grid Type                 RadialGrid  ... OptM3 with GC (2021)
Angular Grid (max. ang.)         AngularGrid ... 2 (Lebedev-110)
Angular grid pruning method      GridPruning ... 4 (adaptive)
Weight generation scheme         WeightScheme... mBecke (2022)
Basis function cutoff            BFCut       ... 1.0000e-10
Integration weight cutoff        WCut        ... 1.0000e-14
Partially contracted basis set               ... on
Rotationally invariant grid construction     ... off
Angular grids for H and He will be reduced by one unit

Total number of grid points                  ...    52129
Total number of batches                      ...      428
Average number of points per batch           ...      121
Average number of grid points per atom       ...     1303
UseSFitting                                  ... on

GRIDX 3
-------
General Integration Accuracy     IntAcc      ... 4.338
Radial Grid Type                 RadialGrid  ... OptM3 with GC (2021)
Angular Grid (max. ang.)         AngularGrid ... 3 (Lebedev-194)
Angular grid pruning method      GridPruning ... 4 (adaptive)
Weight generation scheme         WeightScheme... mBecke (2022)
Basis function cutoff            BFCut       ... 1.0000e-10
Integration weight cutoff        WCut        ... 1.0000e-14
Partially contracted basis set               ... on
Rotationally invariant grid construction     ... off
Angular grids for H and He will be reduced by one unit

Total number of grid points                  ...   114038
Total number of batches                      ...      913
Average number of points per batch           ...      124
Average number of grid points per atom       ...     2851
UseSFitting                                  ... on
Initializing property integral containers    ... done (  0.0 sec)

SHARK setup successfully completed in   9.0 seconds

Maximum memory used throughout the entire STARTUP-calculation: 49.8 MB


           ************************************************************
           *        Program running with 28 parallel MPI-processes    *
           *              working on a common directory               *
           ************************************************************
-------------------------------------------------------------------------------
                                 ORCA GUESS
                   Start orbitals & Density for SCF / CASSCF
-------------------------------------------------------------------------------

------------
SCF SETTINGS
------------
Hamiltonian:
 Density Functional     Method          .... DFT(GTOs)
 Exchange Functional    Exchange        .... WB97X-D3
 Correlation Functional Correlation     .... WB97X-D3
 Gradients option       PostSCFGGA      .... off
 Hybrid DFT is turned on
   Fraction HF Exchange ScalHFX         ....  0.195728
   Scaling of DF-GGA-X  ScalDFX         ....  0.000000
   Scaling of DF-GGA-C  ScalDFC         ....  1.000000
   Scaling of DF-LDA-C  ScalLDAC        ....  1.000000
   Perturbative correction              ....  0.000000
 Long-range corrected/Screened/Range-Separated Hybrid DFT is turned on
   Amount of maximum screened exact exchange              ....  0.804272
   Range separation parameter mu (erf(mu*r12)/r12)        ....  0.250000
 RI-approximation to the Coulomb term is turned on
   Number of AuxJ basis functions       .... 1276
   RIJ-COSX (HFX calculated with COS-X)).... on


General Settings:
 Integral files         IntName         .... honokiol_o2_4
 Hartree-Fock type      HFTyp           .... UHF
 Total Charge           Charge          ....   -1
 Multiplicity           Mult            ....    2
 Number of Electrons    NEL             ....  159
 Basis Dimension        Dim             ....  398
 Nuclear Repulsion      ENuc            ....   1668.3260109622 Eh

Convergence Acceleration:
 AO-DIIS                CNVDIIS         .... on
   Start iteration      DIISMaxIt       ....    12
   Startup error        DIISStart       ....  0.200000
   # of expansion vecs  DIISMaxEq       ....     5
   Bias factor          DIISBfac        ....   1.050
   Max. coefficient     DIISMaxC        ....  10.000
 MO-DIIS                CNVKDIIS        .... off
 Trust-Rad. Augm. Hess. CNVTRAH         .... off
 SOSCF                  CNVSOSCF        .... off
 Level Shifting         CNVShift        .... on
   Level shift para.    LevelShift      ....    0.2500
   Turn off err/grad.   ShiftErr        ....    0.0010
 Zerner damping         CNVZerner       .... off
 Static damping         CNVDamp         .... on
   Fraction old density DampFac         ....    0.7000
   Max. Damping (<1)    DampMax         ....    0.9800
   Min. Damping (>=0)   DampMin         ....    0.0000
   Turn off err/grad.   DampErr         ....    0.1000

SCF Procedure:
 Maximum # iterations   MaxIter         ....   125
 SCF integral mode      SCFMode         .... Direct
   Integral package                     .... SHARK and LIBINT hybrid scheme
 Reset frequency        DirectResetFreq ....    20
 Integral Threshold     Thresh          ....  1.000e-10 Eh
 Primitive CutOff       TCut            ....  1.000e-11 Eh

Convergence Tolerance:
 Convergence Check Mode ConvCheckMode   .... Total+1el-Energy
 Convergence forced     ConvForced      .... 0
 Energy Change          TolE            ....  1.000e-06 Eh
 1-El. energy change                    ....  1.000e-03 Eh
 DIIS Error             TolErr          ....  1.000e-05

------------------------------
INITIAL GUESS: MODEL POTENTIAL
------------------------------
Loading Hartree-Fock densities                     ... done
Calculating cut-offs                               ... done
Initializing the effective Hamiltonian             ... done
Setting up the integral package (SHARK)            ... done
Starting the Coulomb interaction                   ... done (   0.1 sec)
Making the grid                                    ... done (   0.8 sec)
Mapping shells                                     ... done
Starting the XC term evaluation                    ... done (   0.3 sec)
  promolecular density results
     # of electrons  =    157.995283935
     EX              =   -129.869819105
     EC              =     -5.254424668
     EX+EC           =   -135.124243773
Transforming the Hamiltonian                       ... done (   0.0 sec)
Diagonalizing the Hamiltonian                      ... done (   0.0 sec)
Back transforming the eigenvectors                 ... done (   0.1 sec)
Now organizing SCF variables                       ... done
                      ------------------
                      INITIAL GUESS DONE (   1.4 sec)
                      ------------------
             **** ENERGY FILE WAS UPDATED (honokiol_o2_4.en.tmp) ****
Finished Guess after   3.0 sec
Maximum memory used throughout the entire GUESS-calculation: 29.7 MB


           ************************************************************
           *        Program running with 28 parallel MPI-processes    *
           *              working on a common directory               *
           ************************************************************

-------------------------------------------------------------------------------------------
                                      ORCA LEAN-SCF
                              memory conserving SCF solver
-------------------------------------------------------------------------------------------

----------------------------------------D-I-I-S--------------------------------------------
Iteration    Energy (Eh)           Delta-E    RMSDP     MaxDP     DIISErr   Damp  Time(sec)
-------------------------------------------------------------------------------------------
               ***  Starting incremental Fock matrix formation  ***
    1    -995.8945147611593711     0.00e+00  1.15e-03  3.70e-02  9.68e-02  0.700   8.0
Warning: op=1 Small HOMO/LUMO gap (  -0.123) - skipping pre-diagonalization
         Will do a full diagonalization
    2    -996.0973479428216706    -2.03e-01  9.51e-04  4.06e-02  5.56e-02  0.700   6.3
                               ***Turning on AO-DIIS***
    3    -996.2158015016502759    -1.18e-01  5.22e-04  2.23e-02  2.87e-02  0.700   6.2
    4    -996.2914518959705674    -7.57e-02  1.13e-03  4.82e-02  2.00e-02  0.000   6.1
    5    -996.4660518752493772    -1.75e-01  1.11e-04  5.36e-03  2.76e-03  0.000   4.5
    6    -996.4664307586385803    -3.79e-04  6.64e-05  3.51e-03  1.24e-03  0.000   1.3
    7    -996.4665339303010114    -1.03e-04  4.80e-05  2.81e-03  5.66e-04  0.000   0.9
               *** Restarting incremental Fock matrix formation ***
                             ****Resetting DIIS****
    8    -996.4664987726305299     3.52e-05  5.72e-05  2.49e-03  3.01e-04  0.000   2.2
    9    -996.4665413369057205    -4.26e-05  2.97e-05  1.07e-03  3.87e-04  0.000   2.7
   10    -996.4665599247960017    -1.86e-05  4.56e-05  1.59e-03  1.51e-04  0.000   7.5
   11    -996.4665829116629538    -2.30e-05  3.55e-05  1.13e-03  1.52e-04  0.000   7.4
   12    -996.4665973987598591    -1.45e-05  2.94e-05  9.15e-04  1.93e-04  0.000   7.0
   13    -996.4666073360317569    -9.94e-06  4.61e-05  1.40e-03  9.69e-05  0.000   7.5
   14    -996.4666195776121640    -1.22e-05  3.21e-05  1.10e-03  1.10e-04  0.000   5.9
   15    -996.4666261782690526    -6.60e-06  4.20e-05  1.32e-03  7.99e-05  0.000   1.7
   16    -996.4666322745715661    -6.10e-06  2.58e-05  9.09e-04  6.60e-05  0.000   1.5
   17    -996.4666350667680490    -2.79e-06  1.50e-05  5.09e-04  6.40e-05  0.000   1.4
   18    -996.4666363742644535    -1.31e-06  1.47e-05  4.96e-04  6.48e-05  0.000   1.3
   19    -996.4666374714247468    -1.10e-06  5.53e-06  2.35e-04  6.32e-05  0.000   1.3
   20    -996.4666379829623111    -5.12e-07  5.78e-06  2.20e-04  6.28e-05  0.000   1.1
                 **** Energy Check signals convergence ****

               *****************************************************
               *                     SUCCESS                       *
               *           SCF CONVERGED AFTER  20 CYCLES          *
               *****************************************************

Recomputing exchange energy using gridx3       ... done (    3.341 sec)
Old exchange energy                            :    -42.985087976 Eh
New exchange energy                            :    -42.985076903 Eh
Exchange energy change after final integration :      0.000011073 Eh
Total energy after final integration           :   -996.466626910 Eh
             **** ENERGY FILE WAS UPDATED (honokiol_o2_4.en.tmp) ****

----------------
TOTAL SCF ENERGY
----------------

Total Energy       :       -996.46662690959045 Eh          -27115.23543 eV

Components:
Nuclear Repulsion  :       1668.32601096216922 Eh           45397.45872 eV
Electronic Energy  :      -2664.79264894513153 Eh          -72512.69445 eV
One Electron Energy:      -4689.76513976678689 Eh         -127614.99727 eV
Two Electron Energy:       2024.97249082165536 Eh           55102.30282 eV

Virial components:
Potential Energy   :      -1983.14190688586382 Eh          -53964.03476 eV
Kinetic Energy     :        986.67527997627337 Eh           26848.79933 eV
Virial Ratio       :          2.00992357580252

DFT components:
N(Alpha)           :       80.000016548758 electrons
N(Beta)            :       79.000013953318 electrons
N(Total)           :      159.000030502076 electrons
E(XC)              :      -95.547938109581 Eh       

FOD:

 Fermi smearing  (ALPHA): E(HOMO(Eh)) = -0.035645 MUE =  0.078743 gap=   4.142 eV
 Fermi smearing   (BETA): E(HOMO(Eh)) =  0.030801 MUE =  0.092022 gap=   3.332 eV

 N_FOD(alpha) =  0.000000
 N_FOD(beta)  =  0.000000
 N_FOD        =  0.000000

---------------
SCF CONVERGENCE
---------------

  Last Energy change         ...    5.1154e-07  Tolerance :   1.0000e-06
  Last MAX-Density change    ...    2.1991e-04  Tolerance :   1.0000e-05
  Last RMS-Density change    ...    5.7779e-06  Tolerance :   1.0000e-06
  Last DIIS Error            ...    6.2836e-05  Tolerance :   1.0000e-05


----------------
ORBITAL ENERGIES
----------------
                 SPIN UP ORBITALS
  NO   OCC          E(Eh)            E(eV) 
   0   1.0000     -19.175916      -521.8032 
   1   1.0000     -19.175634      -521.7955 
   2   1.0000     -18.987023      -516.6632 
   3   1.0000     -18.983066      -516.5555 
   4   1.0000     -10.251194      -278.9492 
   5   1.0000     -10.248118      -278.8655 
   6   1.0000     -10.214724      -277.9568 
   7   1.0000     -10.207910      -277.7714 
   8   1.0000     -10.204540      -277.6797 
   9   1.0000     -10.193017      -277.3661 
  10   1.0000     -10.192233      -277.3447 
  11   1.0000     -10.191979      -277.3379 
  12   1.0000     -10.188370      -277.2396 
  13   1.0000     -10.187190      -277.2075 
  14   1.0000     -10.183803      -277.1154 
  15   1.0000     -10.183578      -277.1093 
  16   1.0000     -10.182088      -277.0687 
  17   1.0000     -10.181899      -277.0636 
  18   1.0000     -10.175285      -276.8836 
  19   1.0000     -10.172368      -276.8042 
  20   1.0000     -10.169942      -276.7382 
  21   1.0000     -10.161172      -276.4995 
  22   1.0000      -1.072802       -29.1924 
  23   1.0000      -1.071700       -29.1624 
  24   1.0000      -1.034230       -28.1428 
  25   1.0000      -0.869045       -23.6479 
  26   1.0000      -0.855061       -23.2674 
  27   1.0000      -0.819950       -22.3120 
  28   1.0000      -0.792985       -21.5782 
  29   1.0000      -0.773780       -21.0556 
  30   1.0000      -0.756566       -20.5872 
  31   1.0000      -0.735003       -20.0005 
  32   1.0000      -0.719871       -19.5887 
  33   1.0000      -0.688915       -18.7463 
  34   1.0000      -0.668962       -18.2034 
  35   1.0000      -0.634683       -17.2706 
  36   1.0000      -0.626324       -17.0431 
  37   1.0000      -0.596176       -16.2228 
  38   1.0000      -0.577798       -15.7227 
  39   1.0000      -0.562276       -15.3003 
  40   1.0000      -0.548408       -14.9229 
  41   1.0000      -0.542196       -14.7539 
  42   1.0000      -0.539508       -14.6808 
  43   1.0000      -0.533348       -14.5131 
  44   1.0000      -0.500624       -13.6227 
  45   1.0000      -0.484267       -13.1776 
  46   1.0000      -0.475700       -12.9445 
  47   1.0000      -0.461638       -12.5618 
  48   1.0000      -0.449654       -12.2357 
  49   1.0000      -0.444907       -12.1065 
  50   1.0000      -0.435551       -11.8520 
  51   1.0000      -0.427164       -11.6237 
  52   1.0000      -0.420571       -11.4443 
  53   1.0000      -0.412913       -11.2359 
  54   1.0000      -0.412757       -11.2317 
  55   1.0000      -0.403869       -10.9898 
  56   1.0000      -0.400604       -10.9010 
  57   1.0000      -0.396945       -10.8014 
  58   1.0000      -0.385549       -10.4913 
  59   1.0000      -0.375949       -10.2301 
  60   1.0000      -0.365137        -9.9359 
  61   1.0000      -0.358787        -9.7631 
  62   1.0000      -0.353748        -9.6260 
  63   1.0000      -0.339322        -9.2334 
  64   1.0000      -0.329601        -8.9689 
  65   1.0000      -0.327831        -8.9207 
  66   1.0000      -0.321456        -8.7473 
  67   1.0000      -0.314952        -8.5703 
  68   1.0000      -0.311163        -8.4672 
  69   1.0000      -0.306552        -8.3417 
  70   1.0000      -0.285615        -7.7720 
  71   1.0000      -0.273784        -7.4500 
  72   1.0000      -0.267970        -7.2918 
  73   1.0000      -0.243079        -6.6145 
  74   1.0000      -0.229768        -6.2523 
  75   1.0000      -0.224932        -6.1207 
  76   1.0000      -0.201476        -5.4825 
  77   1.0000      -0.178253        -4.8505 
  78   1.0000      -0.035645        -0.9700 
  79   1.0000       0.002672         0.0727 
  80   0.0000       0.154904         4.2152 
  81   0.0000       0.164600         4.4790 
  82   0.0000       0.186256         5.0683 
  83   0.0000       0.194829         5.3016 
  84   0.0000       0.210954         5.7404 
  85   0.0000       0.220830         6.0091 
  86   0.0000       0.229085         6.2337 
  87   0.0000       0.229627         6.2485 
  88   0.0000       0.246874         6.7178 
  89   0.0000       0.255891         6.9631 
  90   0.0000       0.265888         7.2352 

                 SPIN DOWN ORBITALS
  NO   OCC          E(Eh)            E(eV) 
   0   1.0000     -19.175914      -521.8032 
   1   1.0000     -19.175642      -521.7958 
   2   1.0000     -18.975198      -516.3414 
   3   1.0000     -18.970752      -516.2204 
   4   1.0000     -10.251191      -278.9491 
   5   1.0000     -10.248139      -278.8660 
   6   1.0000     -10.214730      -277.9569 
   7   1.0000     -10.207905      -277.7712 
   8   1.0000     -10.204543      -277.6797 
   9   1.0000     -10.193043      -277.3668 
  10   1.0000     -10.192284      -277.3461 
  11   1.0000     -10.192037      -277.3394 
  12   1.0000     -10.188411      -277.2408 
  13   1.0000     -10.187165      -277.2068 
  14   1.0000     -10.183853      -277.1167 
  15   1.0000     -10.183543      -277.1083 
  16   1.0000     -10.182099      -277.0690 
  17   1.0000     -10.181903      -277.0637 
  18   1.0000     -10.175374      -276.8860 
  19   1.0000     -10.172276      -276.8017 
  20   1.0000     -10.170025      -276.7405 
  21   1.0000     -10.161207      -276.5005 
  22   1.0000      -1.072803       -29.1924 
  23   1.0000      -1.071732       -29.1633 
  24   1.0000      -1.004032       -27.3211 
  25   1.0000      -0.869192       -23.6519 
  26   1.0000      -0.855164       -23.2702 
  27   1.0000      -0.820025       -22.3140 
  28   1.0000      -0.792957       -21.5775 
  29   1.0000      -0.773925       -21.0596 
  30   1.0000      -0.756686       -20.5905 
  31   1.0000      -0.735049       -20.0017 
  32   1.0000      -0.719988       -19.5919 
  33   1.0000      -0.689004       -18.7487 
  34   1.0000      -0.669041       -18.2055 
  35   1.0000      -0.634770       -17.2730 
  36   1.0000      -0.626507       -17.0481 
  37   1.0000      -0.596330       -16.2270 
  38   1.0000      -0.577847       -15.7240 
  39   1.0000      -0.562321       -15.3015 
  40   1.0000      -0.542293       -14.7565 
  41   1.0000      -0.539850       -14.6901 
  42   1.0000      -0.534036       -14.5319 
  43   1.0000      -0.501422       -13.6444 
  44   1.0000      -0.499784       -13.5998 
  45   1.0000      -0.484302       -13.1785 
  46   1.0000      -0.475776       -12.9465 
  47   1.0000      -0.461711       -12.5638 
  48   1.0000      -0.449695       -12.2368 
  49   1.0000      -0.444966       -12.1081 
  50   1.0000      -0.435564       -11.8523 
  51   1.0000      -0.427234       -11.6256 
  52   1.0000      -0.420570       -11.4443 
  53   1.0000      -0.413013       -11.2387 
  54   1.0000      -0.412873       -11.2348 
  55   1.0000      -0.403806       -10.9881 
  56   1.0000      -0.400590       -10.9006 
  57   1.0000      -0.397013       -10.8033 
  58   1.0000      -0.385562       -10.4917 
  59   1.0000      -0.376000       -10.2315 
  60   1.0000      -0.365183        -9.9371 
  61   1.0000      -0.358822        -9.7640 
  62   1.0000      -0.353767        -9.6265 
  63   1.0000      -0.339026        -9.2254 
  64   1.0000      -0.329470        -8.9653 
  65   1.0000      -0.327734        -8.9181 
  66   1.0000      -0.321380        -8.7452 
  67   1.0000      -0.312230        -8.4962 
  68   1.0000      -0.310212        -8.4413 
  69   1.0000      -0.268131        -7.2962 
  70   1.0000      -0.264204        -7.1894 
  71   1.0000      -0.255455        -6.9513 
  72   1.0000      -0.243711        -6.6317 
  73   1.0000      -0.231417        -6.2972 
  74   1.0000      -0.225683        -6.1411 
  75   1.0000      -0.219358        -5.9690 
  76   1.0000      -0.201564        -5.4848 
  77   1.0000      -0.178715        -4.8631 
  78   1.0000       0.030801         0.8381 
  79   0.0000       0.153244         4.1700 
  80   0.0000       0.164010         4.4629 
  81   0.0000       0.186003         5.0614 
  82   0.0000       0.194516         5.2930 
  83   0.0000       0.209924         5.7123 
  84   0.0000       0.220769         6.0074 
  85   0.0000       0.228866         6.2278 
  86   0.0000       0.229374         6.2416 
  87   0.0000       0.246832         6.7166 
  88   0.0000       0.255717         6.9584 
  89   0.0000       0.265839         7.2338 
*Only the first 10 virtual orbitals were printed.

                    ********************************
                    * MULLIKEN POPULATION ANALYSIS *
                    ********************************

------------------------------------------
FOD BASED MULLIKEN REDUCED ORBITAL CHARGES
------------------------------------------
  0 O s       :     0.000000  s :     0.000000
      pz      :     0.000000  p :     0.000000
      px      :     0.000000
      py      :     0.000000
      dz2     :     0.000000  d :     0.000000
      dxz     :     0.000000
      dyz     :     0.000000
      dx2y2   :     0.000000
      dxy     :     0.000000

  1 O s       :    -0.000000  s :    -0.000000
      pz      :     0.000000  p :     0.000000
      px      :     0.000000
      py      :     0.000000
      dz2     :     0.000000  d :     0.000000
      dxz     :     0.000000
      dyz     :     0.000000
      dx2y2   :     0.000000
      dxy     :     0.000000

  2 C s       :    -0.000000  s :    -0.000000
      pz      :     0.000000  p :     0.000000
      px      :    -0.000000
      py      :     0.000000
      dz2     :     0.000000  d :     0.000000
      dxz     :     0.000000
      dyz     :     0.000000
      dx2y2   :     0.000000
      dxy     :     0.000000

  3 C s       :     0.000000  s :     0.000000
      pz      :     0.000000  p :     0.000000
      px      :     0.000000
      py      :     0.000000
      dz2     :     0.000000  d :     0.000000
      dxz     :     0.000000
      dyz     :     0.000000
      dx2y2   :     0.000000
      dxy     :     0.000000

  4 C s       :     0.000000  s :     0.000000
      pz      :    -0.000000  p :     0.000000
      px      :    -0.000000
      py      :     0.000000
      dz2     :     0.000000  d :     0.000000
      dxz     :     0.000000
      dyz     :     0.000000
      dx2y2   :     0.000000
      dxy     :     0.000000

  5 C s       :     0.000000  s :     0.000000
      pz      :     0.000000  p :     0.000000
      px      :     0.000000
      py      :     0.000000
      dz2     :     0.000000  d :     0.000000
      dxz     :     0.000000
      dyz     :     0.000000
      dx2y2   :     0.000000
      dxy     :     0.000000

  6 C s       :     0.000000  s :     0.000000
      pz      :     0.000000  p :     0.000000
      px      :     0.000000
      py      :     0.000000
      dz2     :     0.000000  d :     0.000000
      dxz     :     0.000000
      dyz     :     0.000000
      dx2y2   :     0.000000
      dxy     :     0.000000

  7 C s       :     0.000000  s :     0.000000
      pz      :     0.000000  p :     0.000000
      px      :    -0.000000
      py      :     0.000000
      dz2     :     0.000000  d :     0.000000
      dxz     :     0.000000
      dyz     :     0.000000
      dx2y2   :     0.000000
      dxy     :     0.000000

  8 C s       :     0.000000  s :     0.000000
      pz      :     0.000000  p :     0.000000
      px      :     0.000000
      py      :     0.000000
      dz2     :     0.000000  d :     0.000000
      dxz     :     0.000000
      dyz     :     0.000000
      dx2y2   :     0.000000
      dxy     :     0.000000

  9 C s       :    -0.000000  s :    -0.000000
      pz      :    -0.000000  p :     0.000000
      px      :     0.000000
      py      :     0.000000
      dz2     :     0.000000  d :     0.000000
      dxz     :     0.000000
      dyz     :     0.000000
      dx2y2   :     0.000000
      dxy     :     0.000000

 10 C s       :    -0.000000  s :    -0.000000
      pz      :     0.000000  p :     0.000000
      px      :     0.000000
      py      :     0.000000
      dz2     :     0.000000  d :     0.000000
      dxz     :     0.000000
      dyz     :     0.000000
      dx2y2   :    -0.000000
      dxy     :     0.000000

 11 C s       :     0.000000  s :     0.000000
      pz      :     0.000000  p :     0.000000
      px      :     0.000000
      py      :     0.000000
      dz2     :     0.000000  d :     0.000000
      dxz     :     0.000000
      dyz     :     0.000000
      dx2y2   :     0.000000
      dxy     :     0.000000

 12 C s       :    -0.000000  s :    -0.000000
      pz      :    -0.000000  p :    -0.000000
      px      :     0.000000
      py      :     0.000000
      dz2     :     0.000000  d :     0.000000
      dxz     :     0.000000
      dyz     :     0.000000
      dx2y2   :    -0.000000
      dxy     :     0.000000

 13 C s       :     0.000000  s :     0.000000
      pz      :     0.000000  p :     0.000000
      px      :     0.000000
      py      :     0.000000
      dz2     :    -0.000000  d :     0.000000
      dxz     :     0.000000
      dyz     :     0.000000
      dx2y2   :     0.000000
      dxy     :     0.000000

 14 C s       :     0.000000  s :     0.000000
      pz      :     0.000000  p :     0.000000
      px      :     0.000000
      py      :     0.000000
      dz2     :     0.000000  d :     0.000000
      dxz     :     0.000000
      dyz     :     0.000000
      dx2y2   :     0.000000
      dxy     :     0.000000

 15 C s       :     0.000000  s :     0.000000
      pz      :     0.000000  p :     0.000000
      px      :    -0.000000
      py      :     0.000000
      dz2     :     0.000000  d :     0.000000
      dxz     :     0.000000
      dyz     :     0.000000
      dx2y2   :     0.000000
      dxy     :     0.000000

 16 C s       :    -0.000000  s :    -0.000000
      pz      :     0.000000  p :     0.000000
      px      :     0.000000
      py      :     0.000000
      dz2     :     0.000000  d :     0.000000
      dxz     :     0.000000
      dyz     :     0.000000
      dx2y2   :     0.000000
      dxy     :    -0.000000

 17 C s       :     0.000000  s :     0.000000
      pz      :    -0.000000  p :     0.000000
      px      :     0.000000
      py      :     0.000000
      dz2     :     0.000000  d :     0.000000
      dxz     :     0.000000
      dyz     :     0.000000
      dx2y2   :    -0.000000
      dxy     :     0.000000

 18 C s       :    -0.000000  s :    -0.000000
      pz      :     0.000000  p :     0.000000
      px      :     0.000000
      py      :     0.000000
      dz2     :     0.000000  d :     0.000000
      dxz     :     0.000000
      dyz     :     0.000000
      dx2y2   :     0.000000
      dxy     :     0.000000

 19 C s       :    -0.000000  s :    -0.000000
      pz      :     0.000000  p :     0.000000
      px      :     0.000000
      py      :     0.000000
      dz2     :     0.000000  d :     0.000000
      dxz     :     0.000000
      dyz     :    -0.000000
      dx2y2   :     0.000000
      dxy     :     0.000000

 20 H s       :     0.000000  s :     0.000000
      pz      :    -0.000000  p :     0.000000
      px      :     0.000000
      py      :     0.000000

 21 H s       :     0.000000  s :     0.000000
      pz      :     0.000000  p :     0.000000
      px      :     0.000000
      py      :     0.000000

 22 H s       :    -0.000000  s :    -0.000000
      pz      :     0.000000  p :     0.000000
      px      :     0.000000
      py      :     0.000000

 23 H s       :     0.000000  s :     0.000000
      pz      :    -0.000000  p :     0.000000
      px      :     0.000000
      py      :     0.000000

 24 H s       :     0.000000  s :     0.000000
[...]
      pz      :    -0.000005  p :    -0.000005
      px      :    -0.000000
      py      :    -0.000000
      dz2     :     0.000000  d :    -0.000000
      dxz     :     0.000000
      dyz     :    -0.000000
      dx2y2   :    -0.000000
      dxy     :    -0.000000

 19 C s       :     0.000768  s :     0.000768
      pz      :     0.001204  p :     0.002030
      px      :     0.000479
      py      :     0.000346
      dz2     :     0.000000  d :     0.000016
      dxz     :     0.000007
      dyz     :     0.000013
      dx2y2   :    -0.000006
      dxy     :     0.000002

 20 H s       :    -0.000028  s :    -0.000028
      pz      :    -0.000003  p :     0.000000
      px      :     0.000000
      py      :     0.000003

 21 H s       :    -0.002064  s :    -0.002064
      pz      :    -0.000315  p :    -0.000356
      px      :     0.000115
      py      :    -0.000156

 22 H s       :    -0.002536  s :    -0.002536
      pz      :    -0.000260  p :    -0.000932
      px      :    -0.000537
      py      :    -0.000135

 23 H s       :    -0.000003  s :    -0.000003
      pz      :     0.000000  p :     0.000000
      px      :    -0.000000
      py      :     0.000000

 24 H s       :    -0.000005  s :    -0.000005
      pz      :     0.000000  p :     0.000000
      px      :     0.000000
      py      :     0.000000

 25 H s       :     0.000012  s :     0.000012
      pz      :    -0.000055  p :    -0.000065
      px      :    -0.000009
      py      :    -0.000002

 26 H s       :    -0.001223  s :    -0.001223
      pz      :    -0.000220  p :    -0.000332
      px      :    -0.000197
      py      :     0.000085

 27 H s       :    -0.000011  s :    -0.000011
      pz      :     0.000001  p :    -0.000002
      px      :    -0.000001
      py      :    -0.000002

 28 H s       :    -0.000089  s :    -0.000089
      pz      :    -0.000008  p :    -0.000014
      px      :    -0.000000
      py      :    -0.000005

 29 H s       :     0.000006  s :     0.000006
      pz      :    -0.000005  p :    -0.000007
      px      :    -0.000000
      py      :    -0.000002

 30 H s       :    -0.000001  s :    -0.000001
      pz      :     0.000000  p :    -0.000000
      px      :     0.000000
      py      :    -0.000000

 31 H s       :    -0.000112  s :    -0.000112
      pz      :     0.000009  p :     0.000025
      px      :     0.000008
      py      :     0.000008

 32 H s       :    -0.000002  s :    -0.000002
      pz      :    -0.000001  p :    -0.000002
      px      :    -0.000000
      py      :    -0.000001

 33 H s       :    -0.000000  s :    -0.000000
      pz      :    -0.000000  p :     0.000000
      px      :    -0.000000
      py      :     0.000001

 34 H s       :    -0.000000  s :    -0.000000
      pz      :    -0.000000  p :    -0.000000
      px      :    -0.000000
      py      :    -0.000000

 35 H s       :     0.000000  s :     0.000000
      pz      :    -0.000000  p :    -0.000000
      px      :     0.000000
      py      :    -0.000000

 36 H s       :     0.000371  s :     0.000371
      pz      :     0.000063  p :     0.000110
      px      :     0.000048
      py      :    -0.000001

 37 H s       :    -0.000819  s :    -0.000819
      pz      :     0.000240  p :     0.001482
      px      :     0.000922
      py      :     0.000320

 38 O s       :     0.007437  s :     0.007437
      pz      :     0.091046  p :     0.484244
      px      :     0.325378
      py      :     0.067820
      dz2     :     0.000128  d :     0.002120
      dxz     :     0.000393
      dyz     :     0.000196
      dx2y2   :     0.000571
      dxy     :     0.000832

 39 O s       :     0.007029  s :     0.007029
      pz      :     0.098922  p :     0.506778
      px      :     0.336986
      py      :     0.070870
      dz2     :     0.000097  d :     0.001967
      dxz     :     0.000218
      dyz     :     0.000220
      dx2y2   :     0.000555
      dxy     :     0.000877



                      *****************************
                      * MAYER POPULATION ANALYSIS *
                      *****************************

  NA   - Mulliken gross atomic population
  ZA   - Total nuclear charge
  QA   - Mulliken gross atomic charge
  VA   - Mayer's total valence
  BVA  - Mayer's bonded valence
  FA   - Mayer's free valence

  ATOM       NA         ZA         QA         VA         BVA        FA
  0 O      8.2201     8.0000    -0.2201     2.2087     2.2087     0.0000
  1 O      8.2281     8.0000    -0.2281     2.2078     2.2078     0.0000
  2 C      5.9890     6.0000     0.0110     3.7885     3.7885     0.0000
  3 C      5.9662     6.0000     0.0338     3.7821     3.7821     0.0000
  4 C      6.1471     6.0000    -0.1471     3.9326     3.9326     0.0000
  5 C      6.0602     6.0000    -0.0602     3.8801     3.8801     0.0000
  6 C      6.0723     6.0000    -0.0723     3.9072     3.9072     0.0000
  7 C      6.0305     6.0000    -0.0305     3.8262     3.8262     0.0000
  8 C      5.8828     6.0000     0.1172     3.9931     3.9931     0.0000
  9 C      6.0075     6.0000    -0.0075     3.8194     3.8194     0.0000
 10 C      5.8535     6.0000     0.1465     3.9789     3.9789     0.0000
 11 C      5.8603     6.0000     0.1397     3.9027     3.9027     0.0000
 12 C      5.8750     6.0000     0.1250     3.8659     3.8659     0.0000
 13 C      6.0435     6.0000    -0.0435     3.8673     3.8673     0.0000
 14 C      6.1050     6.0000    -0.1050     3.8065     3.8065     0.0000
 15 C      6.1033     6.0000    -0.1033     3.7885     3.7885     0.0000
 16 C      6.0816     6.0000    -0.0816     4.0655     4.0655     0.0000
 17 C      6.1286     6.0000    -0.1286     4.0665     4.0665     0.0000
 18 C      6.0796     6.0000    -0.0796     3.9592     3.9592     0.0000
 19 C      6.0640     6.0000    -0.0640     3.9135     3.9135     0.0000
 20 H      1.0206     1.0000    -0.0206     1.0265     1.0265     0.0000
 21 H      0.9810     1.0000     0.0190     1.1060     1.1060     0.0000
 22 H      0.9701     1.0000     0.0299     1.1101     1.1100     0.0001
 23 H      0.9854     1.0000     0.0146     0.9872     0.9872     0.0000
 24 H      0.9829     1.0000     0.0171     0.9986     0.9986     0.0000
 25 H      1.0169     1.0000    -0.0169     0.9813     0.9813     0.0000
 26 H      0.9411     1.0000     0.0589     1.0343     1.0342     0.0000
 27 H      1.0296     1.0000    -0.0296     0.9890     0.9890     0.0000
 28 H      1.0215     1.0000    -0.0215     0.9927     0.9927     0.0000
 29 H      1.0466     1.0000    -0.0466     0.9904     0.9904     0.0000
 30 H      0.9765     1.0000     0.0235     0.9874     0.9874     0.0000
 31 H      1.0137     1.0000    -0.0137     0.9813     0.9813     0.0000
 32 H      0.8346     1.0000     0.1654     1.0190     1.0190     0.0000
 33 H      0.8267     1.0000     0.1733     1.0157     1.0157     0.0000
 34 H      0.9766     1.0000     0.0234     0.9779     0.9779     0.0000
 35 H      0.9726     1.0000     0.0274     0.9913     0.9913     0.0000
 36 H      1.0000     1.0000    -0.0000     0.9742     0.9742     0.0000
 37 H      0.9262     1.0000     0.0738     1.0691     1.0691     0.0000
 38 O      8.3338     8.0000    -0.3338     1.9346     1.6858     0.2488
 39 O      8.3454     8.0000    -0.3454     1.8754     1.6045     0.2709

  Mayer bond orders larger than 0.100000
B(  0-O ,  8-C ) :   1.1577 B(  0-O , 32-H ) :   0.9706 B(  1-O , 10-C ) :   1.1756 
B(  1-O , 33-H ) :   0.9697 B(  2-C ,  3-C ) :   0.9696 B(  2-C ,  7-C ) :   1.4090 
B(  2-C ,  8-C ) :   1.3533 B(  3-C ,  5-C ) :   1.3711 B(  3-C ,  9-C ) :   1.3821 
B(  4-C ,  5-C ) :   1.4040 B(  4-C , 10-C ) :   1.3885 B(  4-C , 11-C ) :   1.0257 
B(  5-C , 20-H ) :   0.9857 B(  6-C ,  7-C ) :   1.3596 B(  6-C , 12-C ) :   1.0204 
B(  6-C , 13-C ) :   1.4168 B(  7-C , 21-H ) :   0.9118 B(  8-C , 15-C ) :   1.3646 
B(  9-C , 14-C ) :   1.3966 B(  9-C , 22-H ) :   0.9110 B( 10-C , 14-C ) :   1.3219 
B( 11-C , 16-C ) :   1.0423 B( 11-C , 23-H ) :   0.9240 B( 11-C , 24-H ) :   0.9338 
B( 12-C , 17-C ) :   1.0294 B( 12-C , 25-H ) :   0.9303 B( 12-C , 26-H ) :   0.9267 
B( 13-C , 15-C ) :   1.3469 B( 13-C , 27-H ) :   0.9847 B( 14-C , 28-H ) :   0.9920 
B( 15-C , 29-H ) :   0.9770 B( 16-C , 18-C ) :   2.0136 B( 16-C , 30-H ) :   0.9603 
B( 17-C , 19-C ) :   2.0241 B( 17-C , 31-H ) :   0.9623 B( 18-C , 34-H ) :   0.9581 
B( 18-C , 35-H ) :   0.9587 B( 19-C , 36-H ) :   0.9573 B( 19-C , 37-H ) :   0.9117 
B( 21-H , 38-O ) :   0.2212 B( 22-H , 39-O ) :   0.2161 B( 37-H , 38-O ) :   0.1182 
B( 38-O , 39-O ) :   1.3470 

-------
TIMINGS
-------

Total SCF time: 0 days 0 hours 0 min 13 sec 

Total time                  ....      13.504 sec
Sum of individual times     ....      13.441 sec  ( 99.5%)

SCF preparation             ....       1.080 sec  (  8.0%)
Fock matrix formation       ....      11.068 sec  ( 82.0%)
  Startup                   ....       0.033 sec  (  0.3% of F)
  Split-RI-J                ....       0.559 sec  (  5.1% of F)
  Chain of spheres X        ....       9.474 sec  ( 85.6% of F)
  XC integration            ....       0.879 sec  (  7.9% of F)
    XC Preparation          ....       0.000 sec  (  0.0% of XC)
    Basis function eval.    ....       0.186 sec  ( 21.1% of XC)
    Density eval.           ....       0.192 sec  ( 21.8% of XC)
    XC-Functional eval.     ....       0.068 sec  (  7.7% of XC)
    XC-Potential eval.      ....       0.174 sec  ( 19.8% of XC)
Diagonalization             ....       0.000 sec  (  0.0%)
Density matrix formation    ....       0.252 sec  (  1.9%)
Total Energy calculation    ....       0.049 sec  (  0.4%)
Population analysis         ....       0.148 sec  (  1.1%)
Orbital Transformation      ....       0.142 sec  (  1.1%)
Orbital Orthonormalization  ....       0.000 sec  (  0.0%)
DIIS solution               ....       0.702 sec  (  5.2%)
Finished LeanSCF after  13.6 sec

Maximum memory used throughout the entire LEANSCF-calculation: 56.0 MB


-------------------------------------------------------------------------------
                          DFT DISPERSION CORRECTION                            
                                                                               
                              DFTD3 V3.1  Rev 1                                
                              USING zero damping                               
-------------------------------------------------------------------------------
The omegaB97X-D3 functional is recognized. Fit by Chai et al.
Active option DFTDOPT                   ...         3   

molecular C6(AA) [au] = 17889.869179 


            DFT-D V3
 parameters
 s6 scaling factor         :     1.0000 
 rs6 scaling factor        :     1.2810 
 s8 scaling factor         :     1.0000 
 rs8 scaling factor        :     1.0940 
 Damping factor alpha6     :    14.0000 
 Damping factor alpha8     :    16.0000 
 ad hoc parameters k1-k3   :    16.0000     1.3333    -4.0000 

 Edisp/kcal,au: -12.054975052675  -0.019210823525 
 E6   /kcal   :  -5.685517607 
 E8   /kcal   :  -6.369457446 
 % E8         :  52.836753440 

-------------------------   ----------------
Dispersion correction           -0.019210824
-------------------------   ----------------


-------------------------   --------------------
FINAL SINGLE POINT ENERGY      -996.524039180183
-------------------------   --------------------

                                *** OPTIMIZATION RUN DONE ***



           ************************************************************
           *        Program running with 28 parallel MPI-processes    *
           *              working on a common directory               *
           ************************************************************

------------------------------------------------------------------------------
                              ORCA PROPERTY CALCULATIONS
------------------------------------------------------------------------------

GBWName                                 ... honokiol_o2_4.gbw
Number of atoms                         ...     40
Number of basis functions               ...    398
Max core memory                         ...   3500 MB

Electric properties:
Dipole moment                           ... YES
Quadrupole moment                       ...  NO
Static polarizability (Dipole/Dipole)   ...  NO
Static polarizability (Dipole/Quad.)    ...  NO
Static polarizability (Quad./Quad.)     ...  NO
Static polarizability (Velocity)        ...  NO

Atomic electric properties:
Dipole moment                           ...  NO
Quadrupole moment                       ...  NO
Static polarizability                   ...  NO

Choice of electric origin               ... Center of mass
Position of electric origin             ...     0.363728    -0.485753     0.467011

General magnetic properties:
Magnetizability                         ...  NO

EPR properties:
g-Tensor (aka g-matrix)                 ...  NO
Zero-Field splitting spin-orbit         ...  NO
Zero-field splitting spin-spin          ...  NO
Hyperfine couplings                     ...  NO (   0 nuclei)
Quadrupole couplings                    ...  NO (   0 nuclei)
Contact density                         ...  NO (   0 nuclei)

NMR properties:
Chemical shifts                         ...  NO (   0 nuclei)
Spin-rotation constants                 ...  NO (   0 nuclei)
Spin-spin couplings                     ...  NO (   0 nuclei,    0 pairs)

Choice of magnetic origin               ... GIAO
Position of magnetic origin             ...     0.000000     0.000000     0.000000

Properties with geometric perturbations:
SCF Hessian                             ...  NO
IR spectrum                             ...  NO
VCD spectrum                            ...  NO
X-ray spectroscopy properties:
SCF XES/XAS/RIXS spectra                ...  NO


-------------
DIPOLE MOMENT
-------------

Method             : SCF
Type of density    : Electron Density
Multiplicity       :   2
Irrep              :   0
Energy             :  -996.5048283566570717 Eh
Relativity type    : 
Basis              : AO
                                X                 Y                 Z
Electronic contribution:     -0.883984570       2.481415490       1.328904014
Nuclear contribution   :     -1.218517823      -1.081300416      -4.374587326
                        -----------------------------------------
Total Dipole Moment    :     -2.102502393       1.400115074      -3.045683312
                        -----------------------------------------
Magnitude (a.u.)       :      3.956895926
Magnitude (Debye)      :     10.057630151



--------------------
Rotational spectrum 
--------------------
 
Rotational constants in cm-1:             0.015775             0.005132             0.004149 
Rotational constants in MHz :           472.922187           153.839810           124.370163 

Dipole components along the rotational axes: 
x,y,z [a.u.] :    -2.595321     2.938706    -0.534173 
x,y,z [Debye]:    -6.596782     7.469597    -1.357760 

 

Dipole moment calculation done in   0.0 sec 

Maximum memory used throughout the entire PROP-calculation: 26.0 MB

--------------------------------
SUGGESTED CITATIONS FOR THIS RUN
--------------------------------

Below you find a list of papers that are relevant to this ORCA run
We neither can nor want to force you to cite these papers, but we appreciate if you do
You receive ORCA, which is the product of decades of hard work by many enthusiastic individuals, for free
The only thing we kindly ask in return is that you cite our papers,
We deeply appreciate it, if you show your appreciation for ORCA by not just citing the generic ORCA reference.

Please note that relegating all ORCA citations to the supporting information does *not* help us.
SI sections are not indexed - citations you put there will not count into any citation statistics
But we need these citations in order to attract the funding resources that allow us to do what we are doing

Therefore, if you are a happy ORCA user, please consider citing a few of the papers listed below in the main body of your paper

In addition to the list printed below, the program has created the file honokiol_o2_4.bibtex that contains the list in bibtex format
You can import this file easily into all common literature databanks and citation aid programs


List of essential papers. We consider these as the minimum necessary citations

  1. Neese,F.
     Software update: the ORCA program system, version 5.0
     WIRES Comput. Molec. Sci., 2022 12(1)e1606
     doi.org/10.1002/wcms.1606

List of papers to cite with high priority. The work reported in these papers was absolutely
necessary for this run to complete.
Our perspective: the developers of density functionals and basis sets usually get cited in chemistry papers
Good! But without the algorithms to do something with them, the functionals or basis sets would not do anything.
Hence, in our opinion, the algorithm design and method developments papers are equally worthy of getting cited

  1. Neese,F.
     An improvement of the resolution of the identity approximation for the formation of the Coulomb matrix
     J. Comp. Chem., 2003 24(14)1740-1747
     doi.org/10.1002/jcc.10318
  2. Neese,F.; Wennmohs,F.; Hansen,A.; Becker,U.
     Efficient, approximate and parallel Hartree-Fock and hybrid DFT calculations. A 'chain-of-spheres' algorithm for the Hartree-Fock exchange
     Chem. Phys., 2009 356(1-3)98-109
     doi.org/10.1016/j.chemphys.2008.10.036
  3. Helmich-Paris,B.; de Souza,B.; Neese,F.; Izsák,R.
     An improved chain of spheres for exchange algorithm
     J. Chem. Phys., 2021 155 104109
     doi.org/doi: 10.1063/5.0058766.
  4. Neese,F.
     The SHARK Integral Generation and Digestion System
     J. Comp. Chem., 2022  1-16
     doi.org/10.1002/jcc.26942
  5. Grimme,S.; Antony,J.; Ehrlich,S.; Krieg,H.
     A consistent and accurate ab initio parametrization of density functional dispersion correction (DFT-D) for the 94 elements H-Pu
     J. Chem. Phys., 2010 132 154104
     doi.org/10.1063/1.3382344

List of suggested additional citations. These are papers that are important in the 'surrounding' of 
of this run, or papers that preceded the highly important papers. If you like your results we are grateful for a citation.

  1. Izsak,R.; Neese,F.
     An overlap fitted chain of spheres exchange method
     J. Chem. Phys., 2011 135 144105
     doi.org/10.1063/1.3646921
  2. Izsak,R.; Hansen,A.; Neese,F.
     The resolution of identity and chain of spheres approximations for the LPNO-CCSD singles Fock term
     Molec. Phys., 2012 110 2413-2417
     doi.org/10.1080/00268976.2012.687466
  3. Neese,F.
     The ORCA program system
     WIRES Comput. Molec. Sci., 2012 2(1)73-78
     doi.org/10.1002/wcms.81
  4. Izsak,R.; Neese,F.; Klopper,W.
     Robust fitting techniques in the chain of spheres approximation to the Fock exchange: The role of the complementary space
     J. Chem. Phys., 2013 139 
     doi.org/10.1063/1.4819264
  5. Neese,F.
     Software update: the ORCA program system, version 4.0
     WIRES Comput. Molec. Sci., 2018 8(1)1-6
     doi.org/10.1002/wcms.1327
  6. Neese,F.; Wennmohs,F.; Becker,U.; Riplinger,C.
     The ORCA quantum chemistry program package
     J. Chem. Phys., 2020 152 Art. No. L224108
     doi.org/10.1063/5.0004608

Timings for individual modules:

Sum of individual times          ...      820.490 sec (=  13.675 min)
Startup calculation              ...       84.212 sec (=   1.404 min)  10.3 %
SCF iterations                   ...      546.330 sec (=   9.106 min)  66.6 %
Property calculations            ...        1.156 sec (=   0.019 min)   0.1 %
SCF Gradient evaluation          ...      187.830 sec (=   3.130 min)  22.9 %
Geometry relaxation              ...        0.962 sec (=   0.016 min)   0.1 %
                             ****ORCA TERMINATED NORMALLY****
TOTAL RUN TIME: 0 days 0 hours 14 minutes 10 seconds 215 msec
