--------------------------------------------------------------------------
By default, for Open MPI 4.0 and later, infiniband ports on a device
are not used by default.  The intent is to use UCX for these devices.
You can override this policy by setting the btl_openib_allow_ib MCA parameter
to true.

  Local host:              psid01
  Local adapter:           mlx5_0
  Local port:              1

--------------------------------------------------------------------------
--------------------------------------------------------------------------
WARNING: There was an error initializing an OpenFabrics device.

  Local host:   psid01
  Local device: mlx5_0
--------------------------------------------------------------------------

     Program PWSCF v.7.3.1 starts on 11Feb2025 at 20: 8: 4 

     This program is part of the open-source Quantum ESPRESSO suite
     for quantum simulation of materials; please cite
         "P. Giannozzi et al., J. Phys.:Condens. Matter 21 395502 (2009);
         "P. Giannozzi et al., J. Phys.:Condens. Matter 29 465901 (2017);
         "P. Giannozzi et al., J. Chem. Phys. 152 154105 (2020);
          URL http://www.quantum-espresso.org", 
     in publications or presentations arising from this work. More details at
     http://www.quantum-espresso.org/quote

     Parallel version (MPI), running on    32 processors

     MPI processes distributed on     1 nodes
     80693 MiB available memory on the printing compute node when the environment starts

     Waiting for input...
     Reading input from standard input
Warning: card &CELL ignored
Warning: card / ignored

     Current dimensions of program PWSCF are:
     Max number of different atomic species (ntypx) = 10
     Max number of k-points (npk) =  40000
     Max angular momentum in pseudopotentials (lmaxx) =  4
     file O.pbe-n-kjpaw_psl.0.1.UPF: wavefunction(s)  2P renormalized

     gamma-point specific algorithms are used

     R & G space division:  proc/nbgrp/npool/nimage =      32
     Subspace diagonalization in iterative solution of the eigenvalue problem:
     one sub-group per band group will be used
     custom distributed-memory algorithm (size of sub-group:  5*  5 procs)


     Parallelization info
     --------------------
     sticks:   dense  smooth     PW     G-vecs:    dense   smooth      PW
     Min         420     167     41                93786    23720    2961
     Max         424     170     44                93810    23750    2984
     Sum       13471    5389   1345              3001349   759343   94917

     Using Slab Decomposition



     bravais-lattice index     =            4
     lattice parameter (alat)  =      19.7616  a.u.
     unit-cell volume          =   15896.6765 (a.u.)^3
     number of atoms/cell      =           67
     number of atomic types    =            3
     number of electrons       =      1288.00
     number of Kohn-Sham states=          773
     kinetic-energy cutoff     =      50.0000  Ry
     charge density cutoff     =     500.0000  Ry
     scf convergence threshold =      1.0E-06
     mixing beta               =       0.7000
     number of iterations used =            8  plain     mixing
     energy convergence thresh.=      1.0E-04
     force convergence thresh. =      1.0E-03
     Exchange-correlation= PBE
                           (   1   4   3   4   0   0   0)
     nstep                     =          100


     celldm(1)=  19.761622  celldm(2)=   0.000000  celldm(3)=   2.378526
     celldm(4)=   0.000000  celldm(5)=   0.000000  celldm(6)=   0.000000

     crystal axes: (cart. coord. in units of alat)
               a(1) = (   1.000000   0.000000   0.000000 )  
               a(2) = (  -0.500000   0.866025   0.000000 )  
               a(3) = (   0.000000   0.000000   2.378526 )  

     reciprocal axes: (cart. coord. in units 2 pi/alat)
               b(1) = (  1.000000  0.577350 -0.000000 )  
               b(2) = (  0.000000  1.154701  0.000000 )  
               b(3) = (  0.000000 -0.000000  0.420428 )  


     PseudoPot. # 1 for Zn read from file:
     /home/ys/qe-7.3.1/pseudo/Standard_solid-state_pseudopotentials_SSSP_1.3.0_PBE_efficiency/Zn_pbe_v1.uspp.F.UPF
     MD5 check sum: df62231357ef9e81f77b2b3087fa5675
     Pseudo is Ultrasoft, Zval = 20.0
     Generated by new atomic code, or converted to UPF format
     Using radial grid of  943 points,  6 beta functions with: 
                l(1) =   0
                l(2) =   0
                l(3) =   1
                l(4) =   1
                l(5) =   2
                l(6) =   2
     Q(r) pseudized with  8 coefficients,  rinner =    1.100   1.100   1.100
                                                       1.100   1.100

     PseudoPot. # 2 for O  read from file:
     /home/ys/qe-7.3.1/pseudo/Standard_solid-state_pseudopotentials_SSSP_1.3.0_PBE_efficiency/O.pbe-n-kjpaw_psl.0.1.UPF
     MD5 check sum: 0234752ac141de4415c5fc33072bef88
     Pseudo is Projector augmented-wave + core cor, Zval =  6.0
     Generated using "atomic" code by A. Dal Corso  v.5.0.99 svn rev. 10869
     Shape of augmentation charge: BESSEL
     Using radial grid of 1095 points,  4 beta functions with: 
                l(1) =   0
                l(2) =   0
                l(3) =   1
                l(4) =   1
     Q(r) pseudized with 0 coefficients 


     PseudoPot. # 3 for H  read from file:
     /home/ys/qe-7.3.1/pseudo/Standard_solid-state_pseudopotentials_SSSP_1.3.0_PBE_efficiency/H.pbe-rrkjus_psl.1.0.0.UPF
     MD5 check sum: f52b6d4d1c606e5624b1dc7b2218f220
     Pseudo is Ultrasoft, Zval =  1.0
     Generated using "atomic" code by A. Dal Corso  v.5.1
     Using radial grid of  929 points,  2 beta functions with: 
                l(1) =   0
                l(2) =   0
     Q(r) pseudized with 0 coefficients 


     atomic species   valence    mass     pseudopotential
     Zn               20.00    65.39000     Zn( 1.00)
     O                 6.00    15.99940     O ( 1.00)
     H                 1.00     1.00794     H ( 1.00)

     No symmetry found



   Cartesian axes

     site n.     atom                  positions (alat units)
         1        Zn     tau(   1) = (  -0.0000050   0.1443405   0.1165002  )
         2        Zn     tau(   2) = (  -0.1250050   0.3608468   0.1165002  )
         3        Zn     tau(   3) = (  -0.2500050   0.5773532   0.1165002  )
         4        Zn     tau(   4) = (  -0.3750050   0.7938595   0.1165002  )
         5        Zn     tau(   5) = (   0.2499950   0.1443405   0.1165002  )
         6        Zn     tau(   6) = (   0.1249950   0.3608468   0.1165002  )
         7        Zn     tau(   7) = (  -0.0000050   0.5773532   0.1165002  )
         8        Zn     tau(   8) = (  -0.1250050   0.7938595   0.1165002  )
         9        Zn     tau(   9) = (   0.4999950   0.1443405   0.1165002  )
        10        Zn     tau(  10) = (   0.3749950   0.3608468   0.1165002  )
        11        Zn     tau(  11) = (   0.2499950   0.5773532   0.1165002  )
        12        Zn     tau(  12) = (   0.1249950   0.7938595   0.1165002  )
        13        Zn     tau(  13) = (   0.7499950   0.1443405   0.1165002  )
        14        Zn     tau(  14) = (   0.6249950   0.3608468   0.1165002  )
        15        Zn     tau(  15) = (   0.4999950   0.5773532   0.1165002  )
        16        Zn     tau(  16) = (   0.3749950   0.7938595   0.1165002  )
        17        Zn     tau(  17) = (  -0.0000050   0.1443405   0.3495006  )
        18        Zn     tau(  18) = (  -0.1250050   0.3608468   0.3495006  )
        19        Zn     tau(  19) = (  -0.2500050   0.5773532   0.3495006  )
        20        Zn     tau(  20) = (  -0.3750050   0.7938595   0.3495006  )
        21        Zn     tau(  21) = (   0.2499950   0.1443405   0.3495006  )
        22        Zn     tau(  22) = (   0.1249950   0.3608468   0.3495006  )
        23        Zn     tau(  23) = (  -0.0000050   0.5773532   0.3495006  )
        24        Zn     tau(  24) = (  -0.1250050   0.7938595   0.3495006  )
        25        Zn     tau(  25) = (   0.4999950   0.1443405   0.3495006  )
        26        Zn     tau(  26) = (   0.3749950   0.3608468   0.3495006  )
        27        Zn     tau(  27) = (   0.2499950   0.5773532   0.3495006  )
        28        Zn     tau(  28) = (   0.1249950   0.7938595   0.3495006  )
        29        Zn     tau(  29) = (   0.7499950   0.1443405   0.3495006  )
        30        Zn     tau(  30) = (   0.6249950   0.3608468   0.3495006  )
        31        Zn     tau(  31) = (   0.4999950   0.5773532   0.3495006  )
        32        Zn     tau(  32) = (   0.3749950   0.7938595   0.3495006  )
        33        Zn     tau(  33) = (   0.1250050   0.0721659   0.1165002  )
        34        Zn     tau(  34) = (   0.0000050   0.2886722   0.1165002  )
        35        Zn     tau(  35) = (  -0.1249950   0.5051786   0.1165002  )
        36        Zn     tau(  36) = (  -0.2499950   0.7216849   0.1165002  )
        37        Zn     tau(  37) = (   0.3750050   0.0721659   0.1165002  )
        38        Zn     tau(  38) = (   0.2500050   0.2886722   0.1165002  )
        39        Zn     tau(  39) = (   0.1250050   0.5051786   0.1165002  )
        40        Zn     tau(  40) = (   0.0000050   0.7216849   0.1165002  )
        41        Zn     tau(  41) = (   0.6250050   0.0721659   0.1165002  )
        42        Zn     tau(  42) = (   0.5000050   0.2886722   0.1165002  )
        43        Zn     tau(  43) = (   0.3750050   0.5051786   0.1165002  )
        44        Zn     tau(  44) = (   0.2500050   0.7216849   0.1165002  )
        45        Zn     tau(  45) = (   0.8750050   0.0721659   0.1165002  )
        46        Zn     tau(  46) = (   0.7500050   0.2886722   0.1165002  )
        47        Zn     tau(  47) = (   0.6250050   0.5051786   0.1165002  )
        48        Zn     tau(  48) = (   0.5000050   0.7216849   0.1165002  )
        49        Zn     tau(  49) = (   0.1250050   0.0721659   0.3495006  )
        50        Zn     tau(  50) = (   0.0000050   0.2886722   0.3495006  )
        51        Zn     tau(  51) = (  -0.1249950   0.5051786   0.3495006  )
        52        Zn     tau(  52) = (  -0.2499950   0.7216849   0.3495006  )
        53        Zn     tau(  53) = (   0.3750050   0.0721659   0.3495006  )
        54        Zn     tau(  54) = (   0.2500050   0.2886722   0.3495006  )
        55        Zn     tau(  55) = (   0.1250050   0.5051786   0.3495006  )
        56        Zn     tau(  56) = (   0.0000050   0.7216849   0.3495006  )
        57        Zn     tau(  57) = (   0.6250050   0.0721659   0.3495006  )
        58        Zn     tau(  58) = (   0.5000050   0.2886722   0.3495006  )
        59        Zn     tau(  59) = (   0.3750050   0.5051786   0.3495006  )
        60        Zn     tau(  60) = (   0.2500050   0.7216849   0.3495006  )
        61        Zn     tau(  61) = (   0.8750050   0.0721659   0.3495006  )
        62        Zn     tau(  62) = (   0.7500050   0.2886722   0.3495006  )
        63        Zn     tau(  63) = (   0.6250050   0.5051786   0.3495006  )
        64        Zn     tau(  64) = (   0.5000050   0.7216849   0.3495006  )
        65        O      tau(  65) = (   0.2963200   0.4222047   0.5295313  )
        66        H      tau(  66) = (   0.3072150   0.3316618   0.5465378  )
        67        H      tau(  67) = (   0.2699400   0.4577291   0.6110672  )

     number of k points=     1  Gaussian smearing, width (Ry)=  0.0100
                       cart. coord. in units 2pi/alat
        k(    1) = (   0.0000000   0.0000000   0.0000000), wk =   2.0000000

     Dense  grid:  1500675 G-vectors     FFT dimensions: ( 144, 144, 360)

     Smooth grid:   379672 G-vectors     FFT dimensions: (  90,  90, 216)

     Estimated max dynamical RAM per process >     358.02 MB

     Estimated total dynamical RAM >      11.19 GB

     Initial potential from superposition of free atoms

     starting charge    1287.9910, renormalised to    1288.0000

     negative rho (up, down):  2.425E-03 0.000E+00
     Starting wfcs are  838 randomized atomic wfcs
[psid01:24183] 31 more processes have sent help message help-mpi-btl-openib.txt / ib port not selected
[psid01:24183] Set MCA parameter "orte_base_help_aggregate" to 0 to see all help / error messages
[psid01:24183] 31 more processes have sent help message help-mpi-btl-openib.txt / error in device init
     Checking if some PAW data can be deallocated... 

     total cpu time spent up to now is       17.7 secs

     Self-consistent Calculation

     iteration #  1     ecut=    50.00 Ry     beta= 0.70
     Davidson diagonalization with overlap
     ethr =  1.00E-02,  avg # of iterations =  8.0

     Threshold (ethr) on eigenvalues was too large:
     Diagonalizing with lowered threshold

     Davidson diagonalization with overlap
     ethr =  1.14E-04,  avg # of iterations =  4.0

     negative rho (up, down):  1.091E-03 0.000E+00

     total cpu time spent up to now is      150.7 secs

     total energy              =  -29502.30344066 Ry
     estimated scf accuracy    <       1.46956665 Ry

     iteration #  2     ecut=    50.00 Ry     beta= 0.70
     Davidson diagonalization with overlap
     ethr =  1.14E-04,  avg # of iterations = 10.0

     negative rho (up, down):  1.712E-03 0.000E+00

     total cpu time spent up to now is      222.3 secs

     total energy              =  -29502.12578755 Ry
     estimated scf accuracy    <       1.98481419 Ry

     iteration #  3     ecut=    50.00 Ry     beta= 0.70
     Davidson diagonalization with overlap
     ethr =  1.14E-04,  avg # of iterations =  9.0

     negative rho (up, down):  2.207E-03 0.000E+00

     total cpu time spent up to now is      289.0 secs

     total energy              =  -29501.88617039 Ry
     estimated scf accuracy    <      12.17487558 Ry

     iteration #  4     ecut=    50.00 Ry     beta= 0.70
     Davidson diagonalization with overlap
     ethr =  1.14E-04,  avg # of iterations = 11.0

     negative rho (up, down):  2.022E-03 0.000E+00

     total cpu time spent up to now is      347.5 secs

     total energy              =  -29502.59602591 Ry
     estimated scf accuracy    <       1.34579640 Ry

     iteration #  5     ecut=    50.00 Ry     beta= 0.70
     Davidson diagonalization with overlap
     ethr =  1.04E-04,  avg # of iterations =  8.0

     negative rho (up, down):  2.028E-03 0.000E+00

     total cpu time spent up to now is      401.2 secs

     total energy              =  -29502.66085290 Ry
     estimated scf accuracy    <       0.25522811 Ry

     iteration #  6     ecut=    50.00 Ry     beta= 0.70
     Davidson diagonalization with overlap
     ethr =  1.98E-05,  avg # of iterations = 13.0

     negative rho (up, down):  2.022E-03 0.000E+00

     total cpu time spent up to now is      457.6 secs

     total energy              =  -29502.68793472 Ry
     estimated scf accuracy    <       0.18188414 Ry

     iteration #  7     ecut=    50.00 Ry     beta= 0.70
     Davidson diagonalization with overlap
     ethr =  1.41E-05,  avg # of iterations =  2.0

     negative rho (up, down):  2.025E-03 0.000E+00

     total cpu time spent up to now is      509.5 secs

     total energy              =  -29502.70485857 Ry
     estimated scf accuracy    <       0.00860219 Ry

     iteration #  8     ecut=    50.00 Ry     beta= 0.70
     Davidson diagonalization with overlap
     ethr =  6.68E-07,  avg # of iterations =  6.0

     negative rho (up, down):  2.033E-03 0.000E+00

     total cpu time spent up to now is      562.8 secs

     total energy              =  -29502.70589810 Ry
     estimated scf accuracy    <       0.00189098 Ry

     iteration #  9     ecut=    50.00 Ry     beta= 0.70
     Davidson diagonalization with overlap
     ethr =  1.47E-07,  avg # of iterations =  2.0

     negative rho (up, down):  2.037E-03 0.000E+00

     total cpu time spent up to now is      614.5 secs

     total energy              =  -29502.70593210 Ry
     estimated scf accuracy    <       0.00237061 Ry

     iteration # 10     ecut=    50.00 Ry     beta= 0.70
     Davidson diagonalization with overlap
     ethr =  1.47E-07,  avg # of iterations =  2.0

     negative rho (up, down):  2.038E-03 0.000E+00

     total cpu time spent up to now is      665.6 secs

     total energy              =  -29502.70619895 Ry
     estimated scf accuracy    <       0.00036791 Ry

     iteration # 11     ecut=    50.00 Ry     beta= 0.70
     Davidson diagonalization with overlap
     ethr =  2.86E-08,  avg # of iterations =  2.0

     negative rho (up, down):  2.039E-03 0.000E+00

     total cpu time spent up to now is      716.9 secs

     total energy              =  -29502.70623785 Ry
     estimated scf accuracy    <       0.00002503 Ry

     iteration # 12     ecut=    50.00 Ry     beta= 0.70
     Davidson diagonalization with overlap
     ethr =  1.94E-09,  avg # of iterations =  2.0

     negative rho (up, down):  2.039E-03 0.000E+00

     total cpu time spent up to now is      771.1 secs

     total energy              =  -29502.70623415 Ry
     estimated scf accuracy    <       0.00011466 Ry

     iteration # 13     ecut=    50.00 Ry     beta= 0.70
     Davidson diagonalization with overlap
     ethr =  1.94E-09,  avg # of iterations =  2.0

     negative rho (up, down):  2.040E-03 0.000E+00

     total cpu time spent up to now is      822.5 secs

     total energy              =  -29502.70624488 Ry
     estimated scf accuracy    <       0.00000854 Ry

     iteration # 14     ecut=    50.00 Ry     beta= 0.70
     Davidson diagonalization with overlap
     ethr =  6.63E-10,  avg # of iterations =  2.0

     negative rho (up, down):  2.040E-03 0.000E+00

     total cpu time spent up to now is      873.7 secs

     End of self-consistent calculation

          k = 0.0000 0.0000 0.0000 ( 47459 PWs)   bands (ev):

  -128.9514-128.9295-128.7332-128.7048-128.6915-128.6837-128.6786-128.6749
  -128.6730-128.6717-128.6674-128.6632-128.6590-128.6449-128.3127-128.3064
  -128.2761-128.2707-128.2649-128.2617-128.2574-128.2552-128.2544-128.2524
  -128.2516-128.2491-128.2485-128.2457-128.2394-128.2348-128.2342-128.2249
  -127.6296-127.6164-127.5859-127.5788-127.5734-127.5706-127.5668-127.5642
  -127.5636-127.5614-127.5607-127.5583-127.5571-127.5549-127.5490-127.5448
  -127.5445-127.5346-127.1807-127.1522-127.1424-127.1362-127.1311-127.1268
  -127.1258-127.1242-127.1207-127.1139-127.1110-127.0948-126.8565-126.8518
   -84.9472 -84.9365 -84.8948 -84.8915 -84.8902 -84.8878 -84.8867 -84.8839
   -84.8821 -84.8808 -84.8794 -84.8763 -84.7909 -84.7877 -84.7852 -84.7837
   -84.7806 -84.7748 -84.6407 -84.6323 -84.6239 -84.6192 -84.6156 -84.6114
   -84.6110 -84.6090 -84.6080 -84.6074 -84.6059 -84.6012 -84.4337 -84.4301
   -84.4256 -84.4232 -84.0962 -84.0919 -84.0849 -84.0798 -84.0756 -84.0738
   -84.0714 -84.0707 -84.0690 -84.0663 -84.0645 -84.0637 -83.6106 -83.6084
   -83.6062 -83.6002 -83.5975 -83.5936 -83.3430 -83.3416 -83.3382 -83.3370
   -83.3284 -83.3266 -83.3257 -83.3238 -83.3233 -83.3210 -83.3203 -83.3175
   -82.0646 -82.0045 -81.9445 -81.9444 -81.9400 -81.9379 -81.9347 -81.9263
   -81.9243 -81.9241 -81.9214 -81.9209 -81.9189 -81.9184 -81.9164 -81.9149
   -81.8997 -81.8823 -81.8740 -81.8690 -81.8651 -81.8627 -81.8574 -81.8453
   -81.8360 -81.8258 -81.7038 -81.7006 -81.6717 -81.6651 -81.6644 -81.6641
   -81.6636 -81.6600 -81.6578 -81.6548 -81.6522 -81.6451 -81.6393 -81.6383
   -81.6328 -81.6316 -81.6269 -81.6247 -81.6228 -81.6185 -81.6116 -81.6048
   -81.6016 -81.5888 -81.3488 -81.3263 -81.2890 -81.2847 -81.2757 -81.2680
   -81.2627 -81.2615 -81.2577 -81.2569 -81.2541 -81.2515 -81.2461 -81.2452
   -81.2397 -81.2330 -81.2311 -81.2165 -81.1978 -81.1957 -81.1874 -81.1800
   -81.1769 -81.1756 -81.1726 -81.1716 -81.1709 -81.1676 -81.1663 -81.1652
   -81.0851 -81.0565 -81.0503 -81.0339 -81.0279 -81.0269 -81.0229 -81.0197
   -81.0175 -81.0090 -80.9977 -80.9833 -80.8887 -80.8673 -80.8194 -80.8178
   -80.8074 -80.8060 -80.6424 -80.6310 -80.6212 -80.6181 -80.6142 -80.6111
   -80.6103 -80.6101 -80.6080 -80.6075 -80.6065 -80.6014 -80.4493 -80.4406
   -80.4374 -80.4337 -80.4307 -80.4266 -80.3676 -80.3594 -80.3397 -80.3367
   -80.3339 -80.3289 -80.3262 -80.3258 -80.3239 -80.3238 -80.3186 -80.3176
   -20.6090 -15.6073 -15.6039 -15.5722 -15.5715 -15.5670 -15.5658 -15.4776
   -15.4762 -15.4512 -15.4504 -15.4459 -15.4446 -14.8873 -14.8857 -14.8840
   -14.7589 -14.7569 -14.7553 -13.4973 -13.4963 -13.4929 -13.4695 -13.4670
   -13.4656 -13.4632 -13.4591 -13.4546 -13.4515 -13.4483 -13.4464 -13.4458
   -13.3300 -13.3261 -13.3234 -13.3200 -13.3184 -13.3168 -13.1633 -12.8860
   -12.8771 -12.8371 -12.8354 -12.8314 -12.8295 -12.6295 -12.6244 -12.6217
   -12.6201 -12.6179 -12.6164 -12.5865 -12.5850 -12.5832 -12.5804 -12.5793
   -12.5771 -12.2609 -12.2568 -12.2325 -12.2188 -12.2067 -12.1921 -12.1897
   -12.1858 -12.1837 -12.1627 -12.1600 -12.1576 -12.1561 -12.1419 -12.1408
   -12.1297 -12.1280 -12.1257 -12.1244 -12.1148 -12.1136 -12.0396 -12.0135
   -12.0082 -11.9951 -11.9878 -11.9813 -11.8856 -11.8750 -11.8713 -11.8578
   -11.8504 -11.8432 -11.8422 -11.8370 -11.8231 -11.8168 -11.8132 -11.8075
   -11.7893 -11.7868 -11.7848 -11.7619 -11.7577 -11.7556 -11.6278 -11.4959
   -11.4923 -11.4870 -11.4806 -11.4797 -11.4728 -11.4145 -11.4097 -11.4046
   -11.3958 -11.3941 -11.3904 -11.3270 -11.3248 -11.3186 -11.3134 -11.3073
   -11.3059 -11.2940 -11.2901 -11.2046 -11.2019 -11.1979 -11.1953 -11.1855
   -11.1815 -10.9836 -10.9813 -10.9616 -10.9450 -10.9394 -10.9101 -10.9080
   -10.9048 -10.9035 -10.8989 -10.8920 -10.8883 -10.8843 -10.8815 -10.7186
   -10.7167 -10.7125 -10.6471 -10.6409 -10.6349 -10.6324 -10.6198 -10.6169
   -10.3819 -10.3316 -10.3225 -10.3128 -10.3061 -10.2995 -10.2680 -10.2676
   -10.2482 -10.2478 -10.2154 -10.2151 -10.1726 -10.1719 -10.0794 -10.0708
   -10.0611 -10.0584 -10.0438 -10.0412  -9.2599  -9.2569  -9.2551  -9.2517
    -9.2416  -9.2380  -9.0281  -8.5259  -8.5251  -8.5226  -8.3310  -8.2627
    -8.2608  -8.2538  -8.2437  -8.2001  -8.0037  -7.9688  -7.9670  -7.9663
    -7.9627  -7.9600  -7.9360  -7.8407  -7.8305  -7.8293  -7.8278  -7.8258
    -7.8247  -7.8106  -7.8072  -7.7960  -7.7916  -7.7530  -7.7504  -7.7464
    -7.7405  -7.6694  -7.6341  -7.6296  -7.5773  -7.4978  -7.4652  -7.4603
    -7.4542  -7.4501  -7.4239  -7.3939  -7.3730  -7.3677  -7.3673  -7.3592
    -7.3564  -7.3534  -7.3501  -7.3369  -7.3316  -7.3255  -7.2272  -7.1686
    -7.1663  -7.1545  -7.1076  -7.1023  -7.1011  -7.0993  -7.0981  -7.0956
    -7.0337  -7.0315  -7.0294  -7.0280  -7.0267  -7.0246  -6.9887  -6.9693
    -6.9682  -6.9557  -6.9544  -6.9518  -6.9195  -6.9041  -6.8225  -6.5821
    -6.5646  -6.5625  -6.5563  -6.5496  -6.5450  -6.4427  -6.4369  -6.2659
    -6.2512  -6.2250  -6.2116  -6.1904  -6.1794  -6.1740  -6.1669  -6.1104
    -5.9321  -5.9028  -5.8957  -5.8884  -5.8829  -5.8825  -5.8778  -5.7746
    -5.7686  -5.7647  -5.7589  -5.7585  -5.7532  -5.7169  -5.6492  -5.6414
    -5.6367  -5.6008  -5.5458  -5.4953  -5.4832  -5.4768  -5.4728  -5.4452
    -5.4265  -5.4242  -5.4219  -5.3957  -5.3831  -5.3759  -5.3656  -5.3616
    -5.3579  -5.3427  -5.3419  -5.3402  -5.3003  -5.2939  -5.2847  -5.2521
    -5.2453  -5.2391  -5.2113  -5.2088  -5.2042  -5.2028  -5.1663  -5.1655
    -5.1630  -5.1624  -5.1616  -5.1494  -5.1467  -5.1444  -5.1418  -5.1394
    -5.1349  -5.1331  -4.6449  -4.3280  -4.3109  -4.1037  -3.9432  -3.9428
    -3.9204  -3.9183  -3.9159  -3.9083  -3.7209  -3.7206  -3.7007  -3.6994
    -3.6978  -3.6939  -3.4289  -3.0472  -2.5532  -2.5461  -2.5395  -2.4952
    -2.2332  -2.0528  -1.3473  -1.3304  -1.1644  -0.9342  -0.9299  -0.9201
    -0.4563  -0.4471  -0.4388  -0.4323  -0.3232   0.0993   1.5117   1.5533
     1.6227   2.3686   2.3929   2.3948   2.3964   2.3977   2.4887   2.6104
     2.6149   2.6176   2.6254   2.6299   2.6344   2.9189   3.8630   3.8854
     3.9227   3.9743   4.0019   4.0984   4.5894   4.6562   4.7146   4.9343
     5.0620   5.0702   5.0780   5.1007   5.1060   5.1606   5.1633   5.1727
     5.2185   5.2240   5.3385   5.8410   5.8474   5.8667   5.9084   5.9104
     5.9266   6.1433   6.8033   6.9319   6.9701   6.9788   6.9854   6.9922
     6.9953   7.0155   7.0319   7.0389   7.1857   7.4480   7.6141   7.8876
     7.9573   8.1613   8.2079   8.2417   8.2745   8.3550   8.3630   8.3723
     8.6287   8.7183   8.7335   8.7739   8.7789   8.7824   8.7969   8.8267
     8.8607   8.8888   8.8897   8.9044   9.0090   9.1906   9.2449   9.2640
     9.3572   9.3723   9.5135   9.5741   9.6438   9.6818   9.7275   9.7359
     9.7547   9.8453  10.0381  10.0691  10.1208  10.1229  10.1289  10.1463
    10.2715  10.2961  10.3474  10.3839  10.4044  10.4513  10.4577  10.4883
    10.5181  10.5890  10.6003  10.6277  10.7187  10.7806  10.8277  10.8707
    10.9612  11.0389  11.1304  11.1735  11.1818  11.2323  11.3225  11.3602
    11.4069  11.4663  11.4769  11.4822  11.4846  11.4909  11.5000  11.5088
    11.5229  11.5328  11.5383  11.5448  11.5589  11.6076  11.6182  11.7264
    11.7688  11.7743  11.8076  11.8519  11.8681  11.9338  11.9463  11.9784
    11.9838  12.0049  12.0188  12.1560  12.4058

     the Fermi energy is     4.3428 ev

!    total energy              =  -29502.70624479 Ry
     estimated scf accuracy    <       0.00000089 Ry
     smearing contrib. (-TS)   =      -0.00048114 Ry
     internal energy E=F+TS    =  -29502.70576365 Ry

     The total energy is F=E-TS. E is the sum of the following terms:
     one-electron contribution = -345979.01312682 Ry
     hartree contribution      =  172803.50665790 Ry
     xc contribution           =   -2766.67252657 Ry
     ewald contribution        =  146448.99232493 Ry
     one-center paw contrib.   =      -9.51909308 Ry

     convergence has been achieved in  14 iterations

     negative rho (up, down):  2.040E-03 0.000E+00

     Forces acting on atoms (cartesian axes, Ry/au):

     atom    1 type  1   force =     0.00284187   -0.00349548   -0.06202079
     atom    2 type  1   force =    -0.00146707    0.00303318   -0.06422823
     atom    3 type  1   force =     0.00410449   -0.00164708   -0.06354513
     atom    4 type  1   force =     0.00068920    0.00287148   -0.06412903
     atom    5 type  1   force =    -0.00084297   -0.00105653   -0.05990461
     atom    6 type  1   force =     0.00381468   -0.00038741   -0.06454648
     atom    7 type  1   force =    -0.00061834   -0.00021235   -0.06133985
     atom    8 type  1   force =     0.00279566    0.00071194   -0.05909591
     atom    9 type  1   force =     0.00232749   -0.00307947   -0.06438157
     atom   10 type  1   force =     0.00041003   -0.00015688   -0.07260388
     atom   11 type  1   force =     0.00190423   -0.00255598   -0.06574269
     atom   12 type  1   force =    -0.00081413    0.00373570   -0.06666993
     atom   13 type  1   force =     0.00059680   -0.00153978   -0.06047426
     atom   14 type  1   force =    -0.00068739   -0.00018018   -0.06156688
     atom   15 type  1   force =    -0.00177011   -0.00168483   -0.05903649
     atom   16 type  1   force =     0.00303665    0.00071187   -0.06444882
     atom   17 type  1   force =    -0.00046755   -0.00237613    0.06441144
     atom   18 type  1   force =     0.00099492   -0.00096170    0.06145855
     atom   19 type  1   force =     0.00125009    0.00279474    0.06347650
     atom   20 type  1   force =     0.00289021   -0.00037759    0.06221313
     atom   21 type  1   force =    -0.00037727   -0.00154587    0.06572852
     atom   22 type  1   force =    -0.01427473   -0.00247362    0.04048462
     atom   23 type  1   force =     0.00023002   -0.00088055    0.06470829
     atom   24 type  1   force =    -0.00116718   -0.00171659    0.06483513
     atom   25 type  1   force =     0.00327633   -0.00138643    0.06146396
     atom   26 type  1   force =     0.03587689   -0.01816321   -0.02010311
     atom   27 type  1   force =    -0.01026521    0.02144386    0.02947839
     atom   28 type  1   force =    -0.00032961    0.00239120    0.05951771
     atom   29 type  1   force =     0.00301771   -0.00057759    0.06604725
     atom   30 type  1   force =    -0.00108784   -0.00096515    0.06258636
     atom   31 type  1   force =     0.00670242    0.00317416    0.05642812
     atom   32 type  1   force =     0.00415861    0.00336634    0.06116508
     atom   33 type  1   force =    -0.00145301   -0.00197147   -0.06556421
     atom   34 type  1   force =    -0.00088611    0.00115328   -0.05944070
     atom   35 type  1   force =    -0.00431311   -0.00154610   -0.06487615
     atom   36 type  1   force =    -0.00159477    0.00125856   -0.06000928
     atom   37 type  1   force =     0.00096161   -0.00240178   -0.06387538
     atom   38 type  1   force =     0.00008244    0.00246297   -0.06512855
     atom   39 type  1   force =     0.00289602   -0.00022909   -0.06323364
     atom   40 type  1   force =    -0.00244027    0.00501894   -0.06303353
     atom   41 type  1   force =    -0.00268117   -0.00277190   -0.06384378
     atom   42 type  1   force =    -0.00298268    0.00144164   -0.05965975
     atom   43 type  1   force =    -0.00095035    0.00028387   -0.07322492
     atom   44 type  1   force =    -0.00250383   -0.00003623   -0.06113833
     atom   45 type  1   force =    -0.00022631   -0.00122661   -0.05863306
     atom   46 type  1   force =     0.00111272    0.00176551   -0.06285208
     atom   47 type  1   force =    -0.00218088    0.00004517   -0.06024100
     atom   48 type  1   force =    -0.00075143    0.00190415   -0.06233207
     atom   49 type  1   force =    -0.00138380   -0.00117469    0.05983885
     atom   50 type  1   force =    -0.00081487    0.00027658    0.06534093
     atom   51 type  1   force =    -0.00141583    0.00021280    0.06053315
     atom   52 type  1   force =     0.00022268    0.00215725    0.06627918
     atom   53 type  1   force =    -0.00119404   -0.00394210    0.06346908
     atom   54 type  1   force =    -0.01853692   -0.03278204    0.00546578
     atom   55 type  1   force =    -0.01094288    0.00495534    0.04346339
     atom   56 type  1   force =    -0.00501103    0.00264288    0.06316531
     atom   57 type  1   force =    -0.00013436    0.00140773    0.06194141
     atom   58 type  1   force =     0.00579368   -0.00318975    0.05569712
     atom   59 type  1   force =     0.01699180    0.02136028    0.01936631
     atom   60 type  1   force =    -0.00179106   -0.00254086    0.06392087
     atom   61 type  1   force =    -0.00149524    0.00359117    0.06549512
     atom   62 type  1   force =     0.00035503   -0.00237400    0.06416150
     atom   63 type  1   force =    -0.00351704    0.00116298    0.06387043
     atom   64 type  1   force =     0.00104890    0.00096448    0.06164871
     atom   65 type  2   force =    -0.00620164    0.01402551    0.20546817
     atom   66 type  3   force =     0.00564207   -0.03645189    0.03146419
     atom   67 type  3   force =    -0.00645323    0.02773337    0.03633155

     Total force =     0.355353     Total SCF correction =     0.007118

     BFGS Geometry Optimization
     Energy error            =      0.0E+00 Ry
     Gradient error          =      2.1E-01 Ry/Bohr

     number of scf cycles    =   1
     number of bfgs steps    =   0

     energy             new  =  -29502.7062447876 Ry

     new trust radius        =       0.2060396659 bohr
     new conv_thr            =       0.0000010000 Ry


ATOMIC_POSITIONS (angstrom)
Zn              -0.0000520000        1.5094260000        1.2182890000    0   0   0
Zn              -1.3072270000        3.7735190000        1.2182890000    0   0   0
Zn              -2.6144020000        6.0376130000        1.2182890000    0   0   0
Zn              -3.9215770000        8.3017060000        1.2182890000    0   0   0
Zn               2.6142980000        1.5094260000        1.2182890000    0   0   0
Zn               1.3071230000        3.7735190000        1.2182890000    0   0   0
Zn              -0.0000520000        6.0376130000        1.2182890000    0   0   0
Zn              -1.3072270000        8.3017060000        1.2182890000    0   0   0
Zn               5.2286480000        1.5094260000        1.2182890000    0   0   0
Zn               3.9214730000        3.7735190000        1.2182890000    0   0   0
Zn               2.6142980000        6.0376130000        1.2182890000    0   0   0
Zn               1.3071230000        8.3017060000        1.2182890000    0   0   0
Zn               7.8429980000        1.5094260000        1.2182890000    0   0   0
Zn               6.5358230000        3.7735190000        1.2182890000    0   0   0
Zn               5.2286480000        6.0376130000        1.2182890000    0   0   0
Zn               3.9214730000        8.3017060000        1.2182890000    0   0   0
Zn              -0.0002994164        1.5081686049        3.6889530646
Zn              -1.3067005106        3.7730100892        3.6873904659
Zn              -2.6144020000        6.0376130000        3.6548680000    0   0   0
Zn              -3.9215770000        8.3017060000        3.6548680000    0   0   0
Zn               2.6140983592        1.5086079592        3.6896500346
Zn               1.2995691382        3.7722100171        3.6762915376
Zn               0.0000697207        6.0371470309        3.6891101547
Zn              -1.3072270000        8.3017060000        3.6548680000    0   0   0
Zn               5.2303817574        1.5086923304        3.6873933280
Zn               3.9404582334        3.7639074422        3.6442298905
Zn               2.6088658851        6.0489605995        3.6704672925
Zn               1.3069485797        8.3029713704        3.6863634159
Zn               7.8429980000        1.5094260000        3.6548680000    0   0   0
Zn               6.5352473379        3.7730082658        3.6879872769
Zn               5.2321947666        6.0392926955        3.6847284752
Zn               3.9236736419        8.3034873906        3.6872351666
Zn               1.3072270000        0.7546680000        1.2182890000    0   0   0
Zn               0.0000520000        3.0187610000        1.2182890000    0   0   0
Zn              -1.3071230000        5.2828550000        1.2182890000    0   0   0
Zn              -2.6142980000        7.5469480000        1.2182890000    0   0   0
Zn               3.9215770000        0.7546680000        1.2182890000    0   0   0
Zn               2.6144020000        3.0187610000        1.2182890000    0   0   0
Zn               1.3072270000        5.2828550000        1.2182890000    0   0   0
Zn               0.0000520000        7.5469480000        1.2182890000    0   0   0
Zn               6.5359270000        0.7546680000        1.2182890000    0   0   0
Zn               5.2287520000        3.0187610000        1.2182890000    0   0   0
Zn               3.9215770000        5.2828550000        1.2182890000    0   0   0
Zn               2.6144020000        7.5469480000        1.2182890000    0   0   0
Zn               9.1502770000        0.7546680000        1.2182890000    0   0   0
Zn               7.8431020000        3.0187610000        1.2182890000    0   0   0
Zn               6.5359270000        5.2828550000        1.2182890000    0   0   0
Zn               5.2287520000        7.5469480000        1.2182890000    0   0   0
Zn               1.3064947266        0.7540463828        3.6865333555
Zn              -0.0003792122        3.0189073599        3.6894449303
Zn              -1.3078722257        5.2829676112        3.6869007633
Zn              -2.6142980000        7.5469480000        3.6548680000    0   0   0
Zn               3.9209451407        0.7525819312        3.6884543892
Zn               2.6045926857        3.0014134911        3.6577603653
Zn               1.3014362761        5.2854772536        3.6778678358
Zn              -0.0025997224        7.5483465502        3.6882936424
Zn               6.5359270000        0.7546680000        3.6548680000    0   0   0
Zn               5.2318178830        3.0170730570        3.6843416471
Zn               3.9305686712        5.2941583713        3.6651162107
Zn               2.6134542128        7.5456034335        3.6886934662
Zn               9.1502770000        0.7546680000        3.6548680000    0   0   0
Zn               7.8431020000        3.0187610000        3.6548680000    0   0   0
Zn               6.5340658649        5.2834704202        3.6886667755
Zn               5.2293070539        7.5474583794        3.6874910910
O                3.0954552357        4.4225849799        5.6462500729
H                3.2156556539        3.4490304890        5.7320141312
H                2.8194560992        4.8013318664        6.4093998279



     Writing config-only to output data dir /home/ys/Research/PSID_server_room/qe/zinc_surface_water.relax/Zn_002_water/pwscf.save/ :
     XML data file
     NEW-OLD atomic charge density approx. for the potential

     negative rho (up, down):  2.501E-03 0.000E+00

     total cpu time spent up to now is      897.5 secs

     Self-consistent Calculation

     iteration #  1     ecut=    50.00 Ry     beta= 0.70
     Davidson diagonalization with overlap
     ethr =  1.00E-06,  avg # of iterations =  9.0

     negative rho (up, down):  2.063E-03 0.000E+00

     total cpu time spent up to now is     1028.4 secs

     total energy              =  -29502.79768843 Ry
     estimated scf accuracy    <       0.02884712 Ry

     iteration #  2     ecut=    50.00 Ry     beta= 0.70
     Davidson diagonalization with overlap
     ethr =  2.24E-06,  avg # of iterations = 11.0

     negative rho (up, down):  2.139E-03 0.000E+00

     total cpu time spent up to now is     1099.0 secs

     total energy              =  -29502.73475591 Ry
     estimated scf accuracy    <       1.03557409 Ry

     iteration #  3     ecut=    50.00 Ry     beta= 0.70
     Davidson diagonalization with overlap
     c_bands:  1 eigenvalues not converged
     ethr =  2.24E-06,  avg # of iterations = 20.0

     negative rho (up, down):  2.143E-03 0.000E+00

     total cpu time spent up to now is     1172.4 secs

     total energy              =  -29502.79204171 Ry
     estimated scf accuracy    <       0.30616642 Ry

     iteration #  4     ecut=    50.00 Ry     beta= 0.70
     Davidson diagonalization with overlap
     ethr =  2.24E-06,  avg # of iterations = 17.0

     negative rho (up, down):  2.141E-03 0.000E+00

     total cpu time spent up to now is     1235.0 secs

     total energy              =  -29502.80561531 Ry
     estimated scf accuracy    <       0.05645584 Ry

     iteration #  5     ecut=    50.00 Ry     beta= 0.70
     Davidson diagonalization with overlap
     ethr =  2.24E-06,  avg # of iterations =  3.0

     negative rho (up, down):  2.145E-03 0.000E+00

     total cpu time spent up to now is     1288.5 secs

     total energy              =  -29502.81153467 Ry
     estimated scf accuracy    <       0.00514319 Ry

     iteration #  6     ecut=    50.00 Ry     beta= 0.70
     Davidson diagonalization with overlap
     ethr =  3.99E-07,  avg # of iterations =  2.0

     negative rho (up, down):  2.147E-03 0.000E+00

     total cpu time spent up to now is     1340.4 secs

     total energy              =  -29502.81203971 Ry
     estimated scf accuracy    <       0.00232834 Ry

     iteration #  7     ecut=    50.00 Ry     beta= 0.70
     Davidson diagonalization with overlap
     ethr =  1.81E-07,  avg # of iterations =  2.0

     negative rho (up, down):  2.147E-03 0.000E+00

     total cpu time spent up to now is     1392.2 secs

     total energy              =  -29502.81235379 Ry
     estimated scf accuracy    <       0.00015933 Ry

     iteration #  8     ecut=    50.00 Ry     beta= 0.70
     Davidson diagonalization with overlap
     ethr =  1.24E-08,  avg # of iterations =  2.0

     negative rho (up, down):  2.148E-03 0.000E+00

     total cpu time spent up to now is     1444.7 secs

     total energy              =  -29502.81236500 Ry
     estimated scf accuracy    <       0.00038455 Ry

     iteration #  9     ecut=    50.00 Ry     beta= 0.70
     Davidson diagonalization with overlap
     ethr =  1.24E-08,  avg # of iterations =  2.0

     negative rho (up, down):  2.148E-03 0.000E+00

     total cpu time spent up to now is     1495.9 secs

     total energy              =  -29502.81240032 Ry
     estimated scf accuracy    <       0.00000616 Ry

     iteration # 10     ecut=    50.00 Ry     beta= 0.70
     Davidson diagonalization with overlap
     ethr =  4.78E-10,  avg # of iterations =  2.0

     negative rho (up, down):  2.148E-03 0.000E+00

     total cpu time spent up to now is     1554.6 secs

     total energy              =  -29502.81240098 Ry
     estimated scf accuracy    <       0.00000408 Ry

     iteration # 11     ecut=    50.00 Ry     beta= 0.70
     Davidson diagonalization with overlap
     ethr =  3.17E-10,  avg # of iterations =  2.0

     negative rho (up, down):  2.148E-03 0.000E+00

     total cpu time spent up to now is     1606.1 secs

     total energy              =  -29502.81240135 Ry
     estimated scf accuracy    <       0.00000329 Ry

     iteration # 12     ecut=    50.00 Ry     beta= 0.70
     Davidson diagonalization with overlap
     ethr =  2.56E-10,  avg # of iterations =  2.0

     negative rho (up, down):  2.148E-03 0.000E+00

     total cpu time spent up to now is     1657.8 secs

     total energy              =  -29502.81240149 Ry
     estimated scf accuracy    <       0.00000196 Ry

     iteration # 13     ecut=    50.00 Ry     beta= 0.70
     Davidson diagonalization with overlap
     ethr =  1.52E-10,  avg # of iterations =  2.0

     negative rho (up, down):  2.148E-03 0.000E+00

     total cpu time spent up to now is     1709.3 secs

     total energy              =  -29502.81240134 Ry
     estimated scf accuracy    <       0.00001068 Ry

     iteration # 14     ecut=    50.00 Ry     beta= 0.70
     Davidson diagonalization with overlap
     ethr =  1.52E-10,  avg # of iterations =  2.0

     negative rho (up, down):  2.148E-03 0.000E+00

     total cpu time spent up to now is     1760.4 secs

     End of self-consistent calculation

          k = 0.0000 0.0000 0.0000 ( 47459 PWs)   bands (ev):

  -128.9233-128.9140-128.6983-128.6957-128.6688-128.6653-128.6642-128.6637
  -128.6591-128.6584-128.6522-128.6465-128.6422-128.6263-128.3061-128.2857
  -128.2604-128.2480-128.2438-128.2415-128.2410-128.2400-128.2377-128.2355
  -128.2339-128.2310-128.2295-128.2283-128.2254-128.2203-128.2158-128.1981
  -127.5719-127.5698-127.5625-127.5569-127.5566-127.5528-127.5509-127.5501
  -127.5495-127.5489-127.5467-127.5448-127.5429-127.5395-127.5380-127.5359
  -127.5350-127.5262-127.1335-127.1272-127.1231-127.1177-127.1164-127.1124
  -127.1117-127.1111-127.1050-127.1042-127.0989-127.0874-126.8404-126.8369
   -84.9510 -84.8989 -84.8939 -84.8810 -84.8758 -84.8748 -84.8736 -84.8712
   -84.8691 -84.8678 -84.8653 -84.8406 -84.7992 -84.7885 -84.7689 -84.7652
   -84.7609 -84.7220 -84.6326 -84.6216 -84.6079 -84.6060 -84.6020 -84.6008
   -84.5986 -84.5959 -84.5934 -84.5927 -84.5871 -84.5040 -84.4302 -84.4108
   -84.4081 -84.3997 -84.1600 -84.0725 -84.0624 -84.0590 -84.0585 -84.0570
   -84.0564 -84.0515 -84.0507 -84.0482 -84.0213 -83.9949 -83.5963 -83.5857
   -83.5834 -83.5818 -83.5789 -83.5622 -83.3410 -83.3292 -83.3166 -83.3124
   -83.3107 -83.3097 -83.3088 -83.3086 -83.3078 -83.3064 -83.2887 -83.2729
   -82.0187 -81.9810 -81.9328 -81.9269 -81.9190 -81.9106 -81.9101 -81.9083
   -81.9077 -81.9062 -81.9060 -81.9045 -81.9042 -81.8915 -81.8902 -81.8809
   -81.8689 -81.8658 -81.8630 -81.8577 -81.8468 -81.8442 -81.8339 -81.8296
   -81.8246 -81.8209 -81.6739 -81.6602 -81.6543 -81.6490 -81.6451 -81.6429
   -81.6415 -81.6396 -81.6383 -81.6334 -81.6314 -81.6290 -81.6263 -81.6206
   -81.6154 -81.6146 -81.6142 -81.6117 -81.6018 -81.6011 -81.5978 -81.5902
   -81.5875 -81.5825 -81.2801 -81.2756 -81.2680 -81.2670 -81.2592 -81.2532
   -81.2506 -81.2465 -81.2403 -81.2394 -81.2373 -81.2361 -81.2332 -81.2314
   -81.2279 -81.2220 -81.2189 -81.2125 -81.1817 -81.1658 -81.1628 -81.1606
   -81.1597 -81.1581 -81.1576 -81.1555 -81.1548 -81.1523 -81.1497 -81.1401
   -81.0429 -81.0355 -81.0290 -81.0186 -81.0149 -81.0094 -81.0069 -81.0051
   -81.0027 -80.9941 -80.9860 -80.9768 -80.8735 -80.8539 -80.8039 -80.7922
   -80.7909 -80.7884 -80.6445 -80.6055 -80.6015 -80.5998 -80.5962 -80.5941
   -80.5933 -80.5914 -80.5900 -80.5873 -80.5860 -80.5778 -80.4365 -80.4183
   -80.4154 -80.4138 -80.4118 -80.4109 -80.3507 -80.3211 -80.3205 -80.3192
   -80.3189 -80.3151 -80.3147 -80.3136 -80.3119 -80.3105 -80.3063 -80.3014
   -20.3544 -15.5661 -15.5646 -15.5588 -15.5563 -15.5520 -15.5384 -15.4508
   -15.4493 -15.4441 -15.4415 -15.4390 -15.4214 -14.8782 -14.8703 -14.8391
   -14.7532 -14.7488 -14.7132 -13.5091 -13.4910 -13.4597 -13.4584 -13.4568
   -13.4486 -13.4378 -13.4343 -13.4292 -13.4281 -13.4240 -13.4066 -13.3915
   -13.3234 -13.3162 -13.3127 -13.3024 -13.2952 -13.2613 -13.1449 -12.8344
   -12.8076 -12.8059 -12.7998 -12.7965 -12.7869 -12.6531 -12.6153 -12.6095
   -12.5950 -12.5912 -12.5835 -12.5781 -12.5730 -12.5706 -12.5583 -12.5518
   -12.5319 -12.2359 -12.2162 -12.2091 -12.1970 -12.1893 -12.1867 -12.1845
   -12.1809 -12.1600 -12.1569 -12.1566 -12.1313 -12.1272 -12.1216 -12.1191
   -12.1125 -12.1110 -12.1070 -12.1019 -12.0914 -12.0790 -11.9897 -11.9856
   -11.9754 -11.9723 -11.9710 -11.9637 -11.8674 -11.8658 -11.8498 -11.8446
   -11.8421 -11.8335 -11.8038 -11.7932 -11.7852 -11.7826 -11.7809 -11.7645
   -11.7557 -11.7545 -11.7418 -11.7393 -11.7289 -11.7184 -11.5363 -11.4790
   -11.4589 -11.4462 -11.4274 -11.4249 -11.4138 -11.4075 -11.3947 -11.3897
   -11.3873 -11.3861 -11.3615 -11.3083 -11.2981 -11.2940 -11.2875 -11.2733
   -11.2707 -11.2681 -11.2647 -11.1943 -11.1892 -11.1736 -11.1716 -11.1673
   -11.1608 -10.9827 -10.9711 -10.9322 -10.9265 -10.9234 -10.9182 -10.9008
   -10.8977 -10.8906 -10.8826 -10.8683 -10.8652 -10.8614 -10.8585 -10.7186
   -10.6960 -10.6935 -10.6025 -10.5990 -10.5868 -10.5836 -10.5796 -10.5761
   -10.2958 -10.2453 -10.2451 -10.2365 -10.2332 -10.2287 -10.2260 -10.2187
   -10.2078 -10.2041 -10.1980 -10.1970 -10.1564 -10.1558 -10.0512 -10.0462
   -10.0456 -10.0401 -10.0375 -10.0353  -9.2062  -9.1947  -9.1907  -9.1851
    -9.1818  -9.1752  -9.1112  -8.4744  -8.4590  -8.4548  -8.2786  -8.2580
    -8.2563  -8.2429  -8.2355  -8.1930  -7.9538  -7.9465  -7.9415  -7.9380
    -7.9355  -7.9226  -7.8507  -7.8253  -7.8184  -7.8154  -7.8114  -7.8094
    -7.8025  -7.7822  -7.7759  -7.7616  -7.7363  -7.7320  -7.7057  -7.6992
    -7.6958  -7.6484  -7.6238  -7.6095  -7.5136  -7.4691  -7.4590  -7.4548
    -7.4516  -7.4491  -7.3972  -7.3661  -7.3594  -7.3482  -7.3449  -7.3390
    -7.3184  -7.3133  -7.3118  -7.3062  -7.2974  -7.2931  -7.2160  -7.1553
    -7.1529  -7.1451  -7.1239  -7.0857  -7.0747  -7.0703  -7.0685  -7.0634
    -7.0281  -7.0190  -7.0081  -7.0017  -6.9996  -6.9905  -6.9738  -6.9651
    -6.9552  -6.9522  -6.9460  -6.9336  -6.8837  -6.8662  -6.8119  -6.5652
    -6.5601  -6.5578  -6.5532  -6.5486  -6.5382  -6.4174  -6.4054  -6.2428
    -6.2320  -6.1783  -6.1512  -6.1392  -6.1343  -6.1267  -6.1215  -5.9317
    -5.8961  -5.8914  -5.8658  -5.8597  -5.8573  -5.8561  -5.8525  -5.7668
    -5.7510  -5.7447  -5.7433  -5.7414  -5.7376  -5.7297  -5.6848  -5.6782
    -5.6466  -5.6312  -5.5073  -5.4496  -5.4364  -5.4346  -5.4239  -5.4110
    -5.4094  -5.3960  -5.3954  -5.3876  -5.3799  -5.3778  -5.3679  -5.3665
    -5.3529  -5.3312  -5.3213  -5.3211  -5.3022  -5.2971  -5.2910  -5.2525
    -5.2315  -5.2010  -5.1945  -5.1911  -5.1892  -5.1867  -5.1655  -5.1458
    -5.1418  -5.1388  -5.1377  -5.1337  -5.1311  -5.1309  -5.1295  -5.1257
    -5.1093  -5.1009  -4.4856  -4.2648  -4.2565  -3.9874  -3.9198  -3.9138
    -3.8998  -3.8991  -3.8936  -3.8801  -3.7054  -3.7015  -3.6887  -3.6867
    -3.6832  -3.6802  -3.3716  -2.8585  -2.5980  -2.5844  -2.5785  -2.5168
    -2.2220  -1.9528  -1.3771  -1.3580  -1.1852  -0.9070  -0.8861  -0.8794
    -0.4527  -0.4477  -0.4428  -0.4397  -0.3214   0.0898   1.4927   1.5403
     1.6044   2.4047   2.4387   2.4431   2.4487   2.4508   2.5557   2.6733
     2.6774   2.6827   2.6834   2.6912   2.6962   2.8296   3.8616   3.8845
     3.9289   3.9608   4.0032   4.0901   4.5841   4.6456   4.6939   4.8868
     4.9691   4.9711   4.9936   5.0673   5.0749   5.1459   5.1532   5.1590
     5.1978   5.2297   5.3328   5.8341   5.8505   5.8636   5.8912   5.8917
     5.9272   6.1349   6.8149   6.9359   6.9919   7.0211   7.0291   7.0355
     7.0556   7.0585   7.0600   7.0730   7.2148   7.6206   7.6699   7.8926
     8.0161   8.1628   8.2119   8.2465   8.2714   8.4270   8.4359   8.4439
     8.6410   8.7018   8.7174   8.7592   8.7627   8.7730   8.7870   8.8398
     8.8609   8.8825   8.8839   8.8952   8.9724   9.1195   9.1522   9.2291
     9.3317   9.4046   9.5003   9.5808   9.6404   9.6761   9.7119   9.7221
     9.7442   9.8341  10.0561  10.0807  10.1197  10.1237  10.1332  10.1373
    10.2846  10.3060  10.3491  10.3595  10.3769  10.4321  10.4368  10.4728
    10.5514  10.5750  10.6059  10.6097  10.7088  10.7569  10.8113  10.8548
    10.9073  10.9863  11.1134  11.1565  11.1751  11.2285  11.3337  11.4037
    11.4338  11.5008  11.5168  11.5176  11.5263  11.5339  11.5394  11.5471
    11.5486  11.5562  11.5597  11.5630  11.5713  11.6180  11.6289  11.7248
    11.7671  11.7782  11.8073  11.8536  11.8742  11.9380  11.9405  11.9774
    11.9824  11.9983  12.0237  12.1882  12.4069

     the Fermi energy is     4.3358 ev

!    total energy              =  -29502.81240174 Ry
     estimated scf accuracy    <       0.00000011 Ry
     smearing contrib. (-TS)   =      -0.00047359 Ry
     internal energy E=F+TS    =  -29502.81192815 Ry

     The total energy is F=E-TS. E is the sum of the following terms:
     one-electron contribution = -344950.87010188 Ry
     hartree contribution      =  172290.42120245 Ry
     xc contribution           =   -2766.49899968 Ry
     ewald contribution        =  145933.64662695 Ry
     one-center paw contrib.   =      -9.51065598 Ry

     convergence has been achieved in  14 iterations

     negative rho (up, down):  2.148E-03 0.000E+00

     Forces acting on atoms (cartesian axes, Ry/au):

     atom    1 type  1   force =     0.00339505   -0.00315551   -0.05408027
     atom    2 type  1   force =    -0.00126895    0.00341089   -0.05627838
     atom    3 type  1   force =     0.00426153   -0.00351123   -0.06073600
     atom    4 type  1   force =    -0.00045946    0.00389333   -0.06177935
     atom    5 type  1   force =    -0.00129709   -0.00050972   -0.05155672
     atom    6 type  1   force =     0.00444453    0.00040576   -0.05702033
     atom    7 type  1   force =    -0.00045356   -0.00148268   -0.05184309
     atom    8 type  1   force =     0.00331681    0.00126500   -0.05559256
     atom    9 type  1   force =     0.00222490   -0.00361614   -0.05657878
     atom   10 type  1   force =    -0.00084761    0.00095985   -0.07017037
     atom   11 type  1   force =     0.00171451   -0.00396798   -0.05869252
     atom   12 type  1   force =    -0.00101324    0.00332160   -0.05783054
     atom   13 type  1   force =     0.00103960   -0.00128022   -0.05884299
     atom   14 type  1   force =     0.00066179    0.00034680   -0.05385157
     atom   15 type  1   force =    -0.00213868   -0.00224616   -0.05116345
     atom   16 type  1   force =     0.00327168    0.00064109   -0.05585937
     atom   17 type  1   force =    -0.00273355    0.01237791    0.09851541
     atom   18 type  1   force =    -0.00825628    0.00466352    0.08985489
     atom   19 type  1   force =    -0.01049340   -0.00452695   -0.01842784
     atom   20 type  1   force =     0.00595543   -0.00120676   -0.01834235
     atom   21 type  1   force =     0.01327361   -0.12622503    0.10392353
     atom   22 type  1   force =     0.08320622    0.04972317    0.04054191
     atom   23 type  1   force =    -0.04220734    0.03632562    0.07344192
     atom   24 type  1   force =    -0.01595433   -0.00452453   -0.01887509
     atom   25 type  1   force =    -0.02458907   -0.01330706    0.09514913
     atom   26 type  1   force =    -0.25339597    0.09881679   -0.09360674
     atom   27 type  1   force =     0.02775247   -0.14677606    0.00436953
     atom   28 type  1   force =    -0.00677612   -0.01361680    0.08502120
     atom   29 type  1   force =     0.00221810   -0.00112668    0.06289065
     atom   30 type  1   force =     0.01984058    0.01620108    0.09739521
     atom   31 type  1   force =     0.04873358    0.04240518    0.06592946
     atom   32 type  1   force =    -0.02788340   -0.01807703    0.09023637
     atom   33 type  1   force =    -0.00228078   -0.00139510   -0.05820384
     atom   34 type  1   force =    -0.00081407    0.00163958   -0.05104433
     atom   35 type  1   force =    -0.00424482   -0.00248438   -0.05683620
     atom   36 type  1   force =    -0.00138033    0.00094398   -0.05847455
     atom   37 type  1   force =     0.00134335   -0.00207469   -0.05554850
     atom   38 type  1   force =    -0.00022543    0.00398697   -0.06045652
     atom   39 type  1   force =     0.00357774   -0.00132078   -0.05488724
     atom   40 type  1   force =    -0.00179798    0.00464201   -0.05411583
     atom   41 type  1   force =    -0.00371286   -0.00282285   -0.06063460
     atom   42 type  1   force =    -0.00333913    0.00208440   -0.05224576
     atom   43 type  1   force =    -0.00215447   -0.00089533   -0.06787589
     atom   44 type  1   force =    -0.00236159   -0.00066902   -0.05181656
     atom   45 type  1   force =     0.00047671   -0.00126489   -0.05589355
     atom   46 type  1   force =     0.00102478    0.00360069   -0.06000513
     atom   47 type  1   force =    -0.00121115   -0.00069741   -0.05223805
     atom   48 type  1   force =    -0.00107598    0.00220335   -0.05433148
     atom   49 type  1   force =     0.00527507   -0.00009764    0.08291748
     atom   50 type  1   force =    -0.03758427   -0.04226198    0.07533129
     atom   51 type  1   force =     0.00247976   -0.00204437    0.08709728
     atom   52 type  1   force =     0.00093799    0.00176509    0.06306880
     atom   53 type  1   force =     0.01323316    0.01830197    0.09549711
     atom   54 type  1   force =     0.09868791    0.22123174   -0.03676228
     atom   55 type  1   force =     0.07419624   -0.04176994    0.03618267
     atom   56 type  1   force =     0.02194510   -0.01308836    0.09694400
     atom   57 type  1   force =     0.00937218    0.00133254   -0.01812999
     atom   58 type  1   force =     0.10402330   -0.07484096    0.09344279
     atom   59 type  1   force =    -0.14297071   -0.11513229    0.01699597
     atom   60 type  1   force =     0.02584392    0.10851543    0.08333907
     atom   61 type  1   force =    -0.00805261    0.01269106   -0.01742379
     atom   62 type  1   force =    -0.00034300    0.00429048   -0.01773009
     atom   63 type  1   force =     0.03049664   -0.01811558    0.10092853
     atom   64 type  1   force =    -0.00158350    0.00267081    0.09654266
     atom   65 type  2   force =     0.05879796   -0.07433870   -0.00203865
     atom   66 type  3   force =    -0.00402796   -0.00113630    0.03741600
     atom   67 type  3   force =    -0.05809351    0.08094943    0.18484827

     Total force =     0.692962     Total SCF correction =     0.003747
     Energy error            =      1.1E-01 Ry
     Gradient error          =      2.5E-01 Ry/Bohr

     number of scf cycles    =   2
     number of bfgs steps    =   1

     energy             old  =  -29502.7062447876 Ry
     energy             new  =  -29502.8124017368 Ry

     CASE: energy            _new < energy            _old

     new trust radius        =       0.2266436324 bohr
     new conv_thr            =       0.0000010000 Ry


ATOMIC_POSITIONS (angstrom)
Zn              -0.0000520000        1.5094260000        1.2182890000    0   0   0
Zn              -1.3072270000        3.7735190000        1.2182890000    0   0   0
Zn              -2.6144020000        6.0376130000        1.2182890000    0   0   0
Zn              -3.9215770000        8.3017060000        1.2182890000    0   0   0
Zn               2.6142980000        1.5094260000        1.2182890000    0   0   0
Zn               1.3071230000        3.7735190000        1.2182890000    0   0   0
Zn              -0.0000520000        6.0376130000        1.2182890000    0   0   0
Zn              -1.3072270000        8.3017060000        1.2182890000    0   0   0
Zn               5.2286480000        1.5094260000        1.2182890000    0   0   0
Zn               3.9214730000        3.7735190000        1.2182890000    0   0   0
Zn               2.6142980000        6.0376130000        1.2182890000    0   0   0
Zn               1.3071230000        8.3017060000        1.2182890000    0   0   0
Zn               7.8429980000        1.5094260000        1.2182890000    0   0   0
Zn               6.5358230000        3.7735190000        1.2182890000    0   0   0
Zn               5.2286480000        6.0376130000        1.2182890000    0   0   0
Zn               3.9214730000        8.3017060000        1.2182890000    0   0   0
Zn              -0.0007320497        1.5075036042        3.7323202735
Zn              -1.3066014989        3.7727207265        3.7285276019
Zn              -2.6144020000        6.0376130000        3.6548680000    0   0   0
Zn              -3.9215770000        8.3017060000        3.6548680000    0   0   0
Zn               2.6146529715        1.5003359827        3.7341021426
Zn               1.2960905156        3.7736683550        3.7023011091
Zn              -0.0022600756        6.0387535370        3.7311868990
Zn              -1.3072270000        8.3017060000        3.6548680000    0   0   0
Zn               5.2308595591        1.5071057787        3.7288427084
Zn               3.9466164128        3.7590693464        3.6270249450
Zn               2.6044913185        6.0529146315        3.6879375240
Zn               1.3063604928        8.3035728447        3.7260849180
Zn               7.8429980000        1.5094260000        3.6548680000    0   0   0
Zn               6.5357703680        3.7733904699        3.7302232587
Zn               5.2389540588        6.0436220566        3.7215310791
Zn               3.9244743623        8.3043979416        3.7282231882
Zn               1.3072270000        0.7546680000        1.2182890000    0   0   0
Zn               0.0000520000        3.0187610000        1.2182890000    0   0   0
Zn              -1.3071230000        5.2828550000        1.2182890000    0   0   0
Zn              -2.6142980000        7.5469480000        1.2182890000    0   0   0
Zn               3.9215770000        0.7546680000        1.2182890000    0   0   0
Zn               2.6144020000        3.0187610000        1.2182890000    0   0   0
Zn               1.3072270000        5.2828550000        1.2182890000    0   0   0
Zn               0.0000520000        7.5469480000        1.2182890000    0   0   0
Zn               6.5359270000        0.7546680000        1.2182890000    0   0   0
Zn               5.2287520000        3.0187610000        1.2182890000    0   0   0
Zn               3.9215770000        5.2828550000        1.2182890000    0   0   0
Zn               2.6144020000        7.5469480000        1.2182890000    0   0   0
Zn               9.1502770000        0.7546680000        1.2182890000    0   0   0
Zn               7.8431020000        3.0187610000        1.2182890000    0   0   0
Zn               6.5359270000        5.2828550000        1.2182890000    0   0   0
Zn               5.2287520000        7.5469480000        1.2182890000    0   0   0
Zn               1.3059945675        0.7533546757        3.7263195822
Zn              -0.0030493150        3.0166015651        3.7320014317
Zn              -1.3085542872        5.2829725339        3.7273364781
Zn              -2.6142980000        7.5469480000        3.6548680000    0   0   0
Zn               3.9210204020        0.7513482740        3.7310950551
Zn               2.5995288249        2.9951848842        3.6588060987
Zn               1.2993774087        5.2859325416        3.7053624865
Zn              -0.0042449346        7.5491258504        3.7308413823
Zn               6.5359270000        0.7546680000        3.6548680000    0   0   0
Zn               5.2412743732        3.0108409463        3.7223236219
Zn               3.9321449002        5.2999110031        3.6774182231
Zn               2.6139170552        7.5504548786        3.7308881701
Zn               9.1502770000        0.7546680000        3.6548680000    0   0   0
Zn               7.8431020000        3.0187610000        3.6548680000    0   0   0
Zn               6.5337923836        5.2830919747        3.7318589219
Zn               5.2298271555        7.5481775520        3.7291297168
O                3.0952662424        4.4264357585        5.7661227342
H                3.2187154162        3.4276765518        5.7525733523
H                2.8122958858        4.8222538645        6.4414088560



     Writing config-only to output data dir /home/ys/Research/PSID_server_room/qe/zinc_surface_water.relax/Zn_002_water/pwscf.save/ :
     XML data file
     NEW-OLD atomic charge density approx. for the potential

     negative rho (up, down):  2.836E-03 0.000E+00

     total cpu time spent up to now is     1784.3 secs

     Self-consistent Calculation

     iteration #  1     ecut=    50.00 Ry     beta= 0.70
     Davidson diagonalization with overlap
     ethr =  1.00E-06,  avg # of iterations = 13.0

     negative rho (up, down):  2.112E-03 0.000E+00

     total cpu time spent up to now is     1918.6 secs

     total energy              =  -29502.94509653 Ry
     estimated scf accuracy    <       0.03285127 Ry

     iteration #  2     ecut=    50.00 Ry     beta= 0.70
     Davidson diagonalization with overlap
     ethr =  2.55E-06,  avg # of iterations = 10.0

     negative rho (up, down):  2.163E-03 0.000E+00

     total cpu time spent up to now is     1984.4 secs

     total energy              =  -29502.88564101 Ry
     estimated scf accuracy    <       0.86760855 Ry

     iteration #  3     ecut=    50.00 Ry     beta= 0.70
     Davidson diagonalization with overlap
     ethr =  2.55E-06,  avg # of iterations = 20.0

     negative rho (up, down):  2.177E-03 0.000E+00

     total cpu time spent up to now is     2055.4 secs

     total energy              =  -29502.93304310 Ry
     estimated scf accuracy    <       0.47625589 Ry

     iteration #  4     ecut=    50.00 Ry     beta= 0.70
     Davidson diagonalization with overlap
     ethr =  2.55E-06,  avg # of iterations = 14.0

     negative rho (up, down):  2.175E-03 0.000E+00

     total cpu time spent up to now is     2117.4 secs

     total energy              =  -29502.95256178 Ry
     estimated scf accuracy    <       0.06543482 Ry

     iteration #  5     ecut=    50.00 Ry     beta= 0.70
     Davidson diagonalization with overlap
     ethr =  2.55E-06,  avg # of iterations =  3.0

     negative rho (up, down):  2.175E-03 0.000E+00

     total cpu time spent up to now is     2170.8 secs

     total energy              =  -29502.95955951 Ry
     estimated scf accuracy    <       0.00697313 Ry

     iteration #  6     ecut=    50.00 Ry     beta= 0.70
     Davidson diagonalization with overlap
     ethr =  5.41E-07,  avg # of iterations =  2.0

     negative rho (up, down):  2.177E-03 0.000E+00

     total cpu time spent up to now is     2222.5 secs

     total energy              =  -29502.96019064 Ry
     estimated scf accuracy    <       0.00311774 Ry

     iteration #  7     ecut=    50.00 Ry     beta= 0.70
     Davidson diagonalization with overlap
     ethr =  2.42E-07,  avg # of iterations =  2.0

     negative rho (up, down):  2.177E-03 0.000E+00

     total cpu time spent up to now is     2274.2 secs

     total energy              =  -29502.96061598 Ry
     estimated scf accuracy    <       0.00014209 Ry

     iteration #  8     ecut=    50.00 Ry     beta= 0.70
     Davidson diagonalization with overlap
     ethr =  1.10E-08,  avg # of iterations =  3.0

     negative rho (up, down):  2.178E-03 0.000E+00

     total cpu time spent up to now is     2328.8 secs

     total energy              =  -29502.96061610 Ry
     estimated scf accuracy    <       0.00048668 Ry

     iteration #  9     ecut=    50.00 Ry     beta= 0.70
     Davidson diagonalization with overlap
     ethr =  1.10E-08,  avg # of iterations =  2.0

     negative rho (up, down):  2.178E-03 0.000E+00

     total cpu time spent up to now is     2380.1 secs

     total energy              =  -29502.96066139 Ry
     estimated scf accuracy    <       0.00000849 Ry

     iteration # 10     ecut=    50.00 Ry     beta= 0.70
     Davidson diagonalization with overlap
     ethr =  6.60E-10,  avg # of iterations =  2.0

     negative rho (up, down):  2.178E-03 0.000E+00

     total cpu time spent up to now is     2438.1 secs

     total energy              =  -29502.96066254 Ry
     estimated scf accuracy    <       0.00000282 Ry

     iteration # 11     ecut=    50.00 Ry     beta= 0.70
     Davidson diagonalization with overlap
     ethr =  2.19E-10,  avg # of iterations =  2.0

     negative rho (up, down):  2.178E-03 0.000E+00

     total cpu time spent up to now is     2490.0 secs

     total energy              =  -29502.96066276 Ry
     estimated scf accuracy    <       0.00000256 Ry

     iteration # 12     ecut=    50.00 Ry     beta= 0.70
     Davidson diagonalization with overlap
     ethr =  1.99E-10,  avg # of iterations =  2.0

     negative rho (up, down):  2.178E-03 0.000E+00

     total cpu time spent up to now is     2541.5 secs

     total energy              =  -29502.96066282 Ry
     estimated scf accuracy    <       0.00000311 Ry

     iteration # 13     ecut=    50.00 Ry     beta= 0.70
     Davidson diagonalization with overlap
     ethr =  1.99E-10,  avg # of iterations =  2.0

     negative rho (up, down):  2.178E-03 0.000E+00

     total cpu time spent up to now is     2592.8 secs

     total energy              =  -29502.96066287 Ry
     estimated scf accuracy    <       0.00000730 Ry

     iteration # 14     ecut=    50.00 Ry     beta= 0.70
     Davidson diagonalization with overlap
     ethr =  1.99E-10,  avg # of iterations =  1.0

     negative rho (up, down):  2.178E-03 0.000E+00

     total cpu time spent up to now is     2636.1 secs

     End of self-consistent calculation

          k = 0.0000 0.0000 0.0000 ( 47459 PWs)   bands (ev):

  -128.9107-128.9082-128.6887-128.6850-128.6684-128.6649-128.6607-128.6599
  -128.6508-128.6503-128.6437-128.6412-128.6400-128.5684-128.2936-128.2771
  -128.2536-128.2468-128.2424-128.2379-128.2352-128.2341-128.2324-128.2302
  -128.2280-128.2265-128.2261-128.2238-128.2177-128.2076-128.1677-128.1260
  -127.5601-127.5556-127.5510-127.5497-127.5479-127.5469-127.5427-127.5418
  -127.5407-127.5384-127.5379-127.5354-127.5338-127.5333-127.5290-127.5269
  -127.5151-127.4981-127.1198-127.1186-127.1134-127.1097-127.1036-127.1031
  -127.1013-127.0966-127.0962-127.0930-127.0880-127.0842-126.8319-126.8281
   -84.9098 -84.8912 -84.8845 -84.8770 -84.8723 -84.8678 -84.8664 -84.8654
   -84.8621 -84.8618 -84.8601 -84.8295 -84.7918 -84.7796 -84.7628 -84.7590
   -84.7562 -84.7121 -84.6291 -84.6119 -84.5975 -84.5960 -84.5953 -84.5924
   -84.5898 -84.5833 -84.5806 -84.5776 -84.5708 -84.4519 -84.4081 -84.4050
   -84.4021 -84.3474 -84.1298 -84.0764 -84.0624 -84.0575 -84.0537 -84.0534
   -84.0487 -84.0453 -84.0417 -84.0346 -83.9782 -83.9319 -83.5792 -83.5768
   -83.5750 -83.5735 -83.5530 -83.5347 -83.3386 -83.3265 -83.3076 -83.3068
   -83.3039 -83.3033 -83.3014 -83.2997 -83.2925 -83.2851 -83.2448 -83.2291
   -82.0066 -81.9755 -81.9254 -81.9201 -81.9130 -81.9051 -81.9047 -81.9020
   -81.9019 -81.8993 -81.8974 -81.8963 -81.8902 -81.8774 -81.8750 -81.8670
   -81.8634 -81.8549 -81.8532 -81.8491 -81.8362 -81.8347 -81.8261 -81.8246
   -81.8186 -81.7893 -81.6646 -81.6473 -81.6431 -81.6399 -81.6387 -81.6368
   -81.6339 -81.6300 -81.6276 -81.6243 -81.6200 -81.6147 -81.6128 -81.6094
   -81.6080 -81.6065 -81.6021 -81.5997 -81.5907 -81.5859 -81.5846 -81.5816
   -81.5633 -81.5454 -81.2615 -81.2583 -81.2531 -81.2487 -81.2478 -81.2432
   -81.2430 -81.2365 -81.2356 -81.2341 -81.2314 -81.2239 -81.2226 -81.2218
   -81.2186 -81.2158 -81.2086 -81.2055 -81.1637 -81.1592 -81.1552 -81.1545
   -81.1516 -81.1508 -81.1468 -81.1430 -81.1408 -81.1372 -81.1315 -81.1203
   -81.0204 -81.0186 -81.0157 -81.0085 -81.0063 -81.0013 -80.9957 -80.9952
   -80.9860 -80.9817 -80.9784 -80.9738 -80.8637 -80.8463 -80.7912 -80.7869
   -80.7854 -80.7748 -80.6183 -80.5985 -80.5971 -80.5947 -80.5929 -80.5889
   -80.5832 -80.5820 -80.5812 -80.5771 -80.5749 -80.5691 -80.4228 -80.4128
   -80.4096 -80.4069 -80.3996 -80.3968 -80.3357 -80.3169 -80.3137 -80.3114
   -80.3103 -80.3095 -80.3079 -80.3067 -80.3062 -80.3035 -80.3008 -80.2908
   -20.1208 -15.5518 -15.5483 -15.5462 -15.5405 -15.5213 -15.5123 -15.4447
   -15.4408 -15.4405 -15.4349 -15.4136 -15.3858 -14.8596 -14.8502 -14.8151
   -14.7458 -14.7389 -14.6775 -13.5081 -13.4865 -13.4558 -13.4542 -13.4514
   -13.4494 -13.4230 -13.4101 -13.4045 -13.4039 -13.3969 -13.3723 -13.3650
   -13.3239 -13.3030 -13.2990 -13.2901 -13.2723 -13.2170 -13.1336 -12.7800
   -12.7765 -12.7735 -12.7703 -12.7582 -12.7291 -12.6689 -12.6024 -12.5952
   -12.5845 -12.5815 -12.5712 -12.5691 -12.5656 -12.5633 -12.5431 -12.5337
   -12.5102 -12.2139 -12.2105 -12.2058 -12.2032 -12.1970 -12.1752 -12.1699
   -12.1679 -12.1420 -12.1415 -12.1170 -12.1157 -12.1135 -12.1106 -12.1091
   -12.1074 -12.1046 -12.0883 -12.0822 -12.0679 -12.0543 -11.9747 -11.9728
   -11.9708 -11.9579 -11.9502 -11.9404 -11.8681 -11.8665 -11.8522 -11.8443
   -11.8435 -11.7994 -11.7747 -11.7690 -11.7623 -11.7507 -11.7465 -11.7430
   -11.7305 -11.7244 -11.6956 -11.6894 -11.6776 -11.6694 -11.4470 -11.4394
   -11.4285 -11.4247 -11.4100 -11.3987 -11.3948 -11.3934 -11.3804 -11.3773
   -11.3647 -11.3556 -11.3305 -11.2838 -11.2714 -11.2650 -11.2628 -11.2542
   -11.2485 -11.2424 -11.2410 -11.1836 -11.1812 -11.1745 -11.1648 -11.1474
   -11.1299 -10.9835 -10.9711 -10.9375 -10.9232 -10.9130 -10.9102 -10.9009
   -10.8935 -10.8838 -10.8832 -10.8433 -10.8382 -10.8306 -10.8131 -10.7212
   -10.6885 -10.6835 -10.5816 -10.5730 -10.5433 -10.5380 -10.5212 -10.5136
   -10.2309 -10.2267 -10.2259 -10.2224 -10.2106 -10.1973 -10.1939 -10.1663
   -10.1551 -10.1489 -10.1092 -10.1067 -10.0901 -10.0884 -10.0547 -10.0352
   -10.0273 -10.0138 -10.0051  -9.9895  -9.2147  -9.1413  -9.1395  -9.1245
    -9.1190  -9.1022  -9.0816  -8.4330  -8.4046  -8.4000  -8.2752  -8.2695
    -8.2690  -8.2554  -8.2380  -8.2134  -7.9479  -7.9304  -7.9243  -7.9214
    -7.9167  -7.9007  -7.8333  -7.8257  -7.8183  -7.8112  -7.8070  -7.7994
    -7.7869  -7.7718  -7.7651  -7.7456  -7.6905  -7.6768  -7.6702  -7.6511
    -7.6428  -7.6392  -7.6040  -7.5979  -7.4933  -7.4753  -7.4650  -7.4608
    -7.4534  -7.4486  -7.3861  -7.3640  -7.3562  -7.3540  -7.3500  -7.3402
    -7.2818  -7.2699  -7.2632  -7.2559  -7.2446  -7.2350  -7.2204  -7.1409
    -7.1375  -7.1340  -7.1242  -7.0716  -7.0633  -7.0542  -7.0502  -7.0474
    -7.0211  -7.0125  -6.9994  -6.9870  -6.9801  -6.9730  -6.9661  -6.9627
    -6.9552  -6.9424  -6.9340  -6.9145  -6.8390  -6.8208  -6.7977  -6.5845
    -6.5664  -6.5644  -6.5470  -6.5427  -6.5347  -6.3931  -6.3829  -6.2341
    -6.2237  -6.1481  -6.1318  -6.0926  -6.0918  -6.0783  -6.0771  -5.8725
    -5.8590  -5.8550  -5.8491  -5.8470  -5.8432  -5.8408  -5.8260  -5.7755
    -5.7556  -5.7504  -5.7459  -5.7432  -5.7348  -5.7304  -5.7260  -5.7258
    -5.6709  -5.6531  -5.4589  -5.4206  -5.4092  -5.4066  -5.4048  -5.3973
    -5.3890  -5.3884  -5.3848  -5.3760  -5.3731  -5.3700  -5.3605  -5.3559
    -5.3508  -5.3256  -5.3203  -5.3124  -5.3087  -5.3082  -5.3048  -5.2636
    -5.2387  -5.1917  -5.1898  -5.1855  -5.1816  -5.1755  -5.1547  -5.1418
    -5.1395  -5.1324  -5.1300  -5.1292  -5.1268  -5.1249  -5.1210  -5.1100
    -5.0753  -5.0632  -4.2960  -4.1979  -4.1931  -3.8997  -3.8967  -3.8908
    -3.8891  -3.8870  -3.8839  -3.8075  -3.6966  -3.6929  -3.6905  -3.6866
    -3.6817  -3.6806  -3.2417  -2.7443  -2.6520  -2.6315  -2.6267  -2.5565
    -2.1947  -1.7858  -1.4177  -1.3954  -1.2150  -0.8802  -0.8528  -0.8476
    -0.4627  -0.4573  -0.4542  -0.4460  -0.3174   0.0756   1.4657   1.5096
     1.5684   2.4509   2.4829   2.4887   2.5009   2.5056   2.5752   2.7170
     2.7220   2.7383   2.7489   2.7559   2.7649   2.7783   3.8527   3.8780
     3.9277   3.9339   3.9853   4.0713   4.5677   4.6053   4.6448   4.7820
     4.8348   4.8421   4.8808   5.0323   5.0368   5.1186   5.1296   5.1465
     5.1629   5.2023   5.3140   5.8043   5.8215   5.8338   5.8522   5.8575
     5.9017   6.1595   6.8054   6.9157   6.9758   7.0288   7.0723   7.0811
     7.1040   7.1143   7.1224   7.1312   7.2100   7.7130   7.7661   7.9121
     8.0757   8.1674   8.2179   8.2534   8.2680   8.5012   8.5114   8.5193
     8.6366   8.6774   8.6959   8.7354   8.7426   8.7507   8.7754   8.8528
     8.8683   8.8826   8.8869   8.8919   8.9214   9.0025   9.0334   9.1625
     9.2694   9.3720   9.4842   9.5988   9.6469   9.6736   9.7024   9.7124
     9.7347   9.8152  10.0687  10.0934  10.1195  10.1236  10.1298  10.1388
    10.2667  10.2834  10.3192  10.3232  10.3330  10.3862  10.3928  10.4414
    10.5291  10.5342  10.5579  10.6101  10.6617  10.6844  10.7537  10.8249
    10.9074  10.9437  11.0901  11.1273  11.1463  11.2113  11.3508  11.4437
    11.4564  11.5005  11.5056  11.5179  11.5316  11.5374  11.5618  11.5644
    11.5726  11.6192  11.6281  11.6406  11.6506  11.6569  11.6643  11.7236
    11.7656  11.7844  11.8070  11.8539  11.8813  11.9302  11.9460  11.9800
    11.9851  11.9933  12.0307  12.2053  12.3944

     the Fermi energy is     4.3154 ev

!    total energy              =  -29502.96066307 Ry
     estimated scf accuracy    <       0.00000017 Ry
     smearing contrib. (-TS)   =      -0.00050276 Ry
     internal energy E=F+TS    =  -29502.96016032 Ry

     The total energy is F=E-TS. E is the sum of the following terms:
     one-electron contribution = -343671.64805465 Ry
     hartree contribution      =  171651.37663767 Ry
     xc contribution           =   -2766.24938921 Ry
     ewald contribution        =  145293.06350949 Ry
     one-center paw contrib.   =      -9.50286361 Ry

     convergence has been achieved in  14 iterations

     negative rho (up, down):  2.178E-03 0.000E+00

     Forces acting on atoms (cartesian axes, Ry/au):

     atom    1 type  1   force =     0.00424507   -0.00274741   -0.04395002
     atom    2 type  1   force =    -0.00061468    0.00382101   -0.04640443
     atom    3 type  1   force =     0.00442438   -0.00545677   -0.05703739
     atom    4 type  1   force =    -0.00180941    0.00496981   -0.05807172
     atom    5 type  1   force =    -0.00172553   -0.00024647   -0.04121162
     atom    6 type  1   force =     0.00358740    0.00039106   -0.04798792
     atom    7 type  1   force =     0.00004915   -0.00225858   -0.04124688
     atom    8 type  1   force =     0.00470987    0.00204082   -0.05173737
     atom    9 type  1   force =     0.00175262   -0.00398433   -0.04705617
     atom   10 type  1   force =    -0.00053913    0.00141040   -0.06796745
     atom   11 type  1   force =     0.00144778   -0.00342092   -0.05101894
     atom   12 type  1   force =    -0.00105502    0.00241770   -0.04790502
     atom   13 type  1   force =     0.00116962   -0.00114283   -0.05649767
     atom   14 type  1   force =     0.00107331    0.00084706   -0.04395722
     atom   15 type  1   force =    -0.00291322   -0.00287387   -0.04164580
     atom   16 type  1   force =     0.00328995    0.00000290   -0.04575310
     atom   17 type  1   force =    -0.00770541   -0.00262156    0.14564047
     atom   18 type  1   force =    -0.02404407    0.00793517    0.12826102
     atom   19 type  1   force =    -0.01785284   -0.01673842   -0.12156768
     atom   20 type  1   force =     0.00087838    0.00181703   -0.11991343
     atom   21 type  1   force =     0.01420254   -0.08187597    0.15711966
     atom   22 type  1   force =     0.09798513    0.03710519    0.04176262
     atom   23 type  1   force =    -0.03356349    0.03187257    0.08261007
     atom   24 type  1   force =    -0.01572292   -0.00032770   -0.12631744
     atom   25 type  1   force =    -0.03379270   -0.05127577    0.13839581
     atom   26 type  1   force =    -0.27357451    0.11571847   -0.19522255
     atom   27 type  1   force =     0.04699613   -0.15658965   -0.03478549
     atom   28 type  1   force =    -0.02178604   -0.01024217    0.11704894
     atom   29 type  1   force =     0.00218096   -0.00075348    0.05763700
     atom   30 type  1   force =     0.05275829    0.03250051    0.14199894
     atom   31 type  1   force =     0.00817824    0.01515225    0.07312104
     atom   32 type  1   force =    -0.01622774   -0.00986834    0.12771478
     atom   33 type  1   force =    -0.00274336   -0.00027427   -0.04836513
     atom   34 type  1   force =    -0.00013765    0.00205687   -0.04048849
     atom   35 type  1   force =    -0.00353311   -0.00288733   -0.04721838
     atom   36 type  1   force =    -0.00104490    0.00085575   -0.05603885
     atom   37 type  1   force =     0.00187702   -0.00178776   -0.04542480
     atom   38 type  1   force =    -0.00053896    0.00395274   -0.05487343
     atom   39 type  1   force =     0.00299208   -0.00094515   -0.04545196
     atom   40 type  1   force =    -0.00114363    0.00403472   -0.04397901
     atom   41 type  1   force =    -0.00537752   -0.00342019   -0.05684338
     atom   42 type  1   force =    -0.00377453    0.00251471   -0.04330279
     atom   43 type  1   force =    -0.00198800   -0.00081931   -0.06130849
     atom   44 type  1   force =    -0.00241544   -0.00169468   -0.04157163
     atom   45 type  1   force =     0.00184662   -0.00187225   -0.05225648
     atom   46 type  1   force =     0.00083142    0.00554353   -0.05589343
     atom   47 type  1   force =    -0.00093059   -0.00125043   -0.04219358
     atom   48 type  1   force =    -0.00191158    0.00198886   -0.04427112
     atom   49 type  1   force =    -0.01709352   -0.00962831    0.11130136
     atom   50 type  1   force =    -0.02153550   -0.03678683    0.08656881
     atom   51 type  1   force =    -0.00709821   -0.00451821    0.12284826
     atom   52 type  1   force =     0.00098371    0.00150063    0.05789681
     atom   53 type  1   force =     0.04211701    0.00728446    0.13645852
     atom   54 type  1   force =     0.13119597    0.24165345   -0.09726553
     atom   55 type  1   force =     0.07342518   -0.03800090    0.02597104
     atom   56 type  1   force =     0.02760828   -0.00490177    0.14283987
     atom   57 type  1   force =     0.00755489   -0.00330433   -0.12004425
     atom   58 type  1   force =     0.04619577   -0.03973082    0.14399238
     atom   59 type  1   force =    -0.14905780   -0.15781320    0.01337660
     atom   60 type  1   force =     0.02938950    0.09396707    0.10850354
     atom   61 type  1   force =    -0.00142105    0.01181986   -0.12246520
     atom   62 type  1   force =     0.00036098    0.01603778   -0.12050687
     atom   63 type  1   force =     0.06301125   -0.02591168    0.15079014
     atom   64 type  1   force =    -0.00293903    0.03124598    0.14371081
     atom   65 type  2   force =     0.16262606   -0.21776952   -0.25764648
     atom   66 type  3   force =    -0.01557730    0.03862484    0.04784959
     atom   67 type  3   force =    -0.14775619    0.18465799    0.38124653

     Total force =     0.994339     Total SCF correction =     0.004573
     Energy error            =      1.5E-01 Ry
     Gradient error          =      3.8E-01 Ry/Bohr

     number of scf cycles    =   3
     number of bfgs steps    =   2

     energy             old  =  -29502.8124017368 Ry
     energy             new  =  -29502.9606630746 Ry

     CASE: energy            _new < energy            _old


[...]
    -8.5365  -8.5351  -8.5221  -8.5128  -8.5106  -8.4887  -8.4824  -8.4684
    -8.4603  -8.4172  -8.3882  -8.3815  -8.3555  -8.3407  -8.2913  -8.2487
    -8.2163  -8.1926  -8.1883  -8.1843  -8.1724  -8.1664  -8.1540  -8.1455
    -8.1357  -8.0429  -7.9967  -7.9854  -7.9735  -7.9532  -7.9263  -7.9032
    -7.8779  -7.8293  -7.7889  -7.7484  -7.7236  -7.6125  -7.6062  -7.5488
    -7.5439  -7.4734  -7.4398  -7.4325  -7.4316  -7.4274  -7.3885  -7.3778
    -7.3272  -7.3061  -7.2926  -7.2658  -7.2474  -7.2178  -7.1515  -7.0799
    -7.0567  -7.0309  -6.9957  -6.9838  -6.9502  -6.9444  -6.9252  -6.9195
    -6.9147  -6.8996  -6.8876  -6.8723  -6.8673  -6.8289  -6.8167  -6.8051
    -6.8027  -6.7632  -6.7577  -6.7547  -6.6956  -6.6858  -6.6460  -6.6420
    -6.6260  -6.6190  -6.6055  -6.5910  -6.5754  -6.5502  -6.5344  -6.4822
    -6.4780  -6.4740  -6.4663  -6.4242  -6.4088  -6.3924  -6.3383  -6.3033
    -6.2984  -6.2955  -6.2891  -6.2764  -6.2718  -6.2688  -6.2668  -6.2649
    -6.2476  -6.2319  -6.2266  -6.1907  -6.1653  -6.1541  -6.1175  -6.0579
    -6.0421  -5.7418  -5.7111  -5.6638  -5.6589  -5.5944  -5.5240  -5.5129
    -5.4278  -5.1805  -5.1536  -5.1067  -5.0959  -4.9286  -4.9255  -4.9159
    -4.9111  -4.8937  -4.8913  -4.7143  -4.6437  -4.5009  -4.4548  -4.4471
    -4.3953  -4.1454  -3.9857  -3.9423  -3.7716  -3.7282  -3.6265  -2.8240
    -2.7446  -2.6956  -2.2943  -1.8517  -1.6997  -1.5113  -1.4723  -1.4438
    -1.3116  -1.2413  -1.1793  -0.0476   0.0148   0.0321   0.1029   0.4866
     1.2127   1.8191   1.8418   1.8647   1.8873   1.9628   2.0071   2.0698
     2.1100   2.1138   2.1745   2.2157   2.3570   2.3697   2.4463   2.6147
     2.6236   2.6329   2.8040   2.8123   2.8655   2.8979   3.0024   3.0158
     3.0616   3.1978   3.3930   3.6833   3.7009   3.7365   3.7897   3.8784
     3.9207   4.0615   4.1511   4.3054   4.3462   4.3666   4.3911   4.5230
     4.7032   4.7334   5.1085   5.5871   5.6538   5.7885   5.8947   6.1795
     6.4554   6.4728   6.5284   6.5528   6.7011   6.7109   6.7849   6.8953
     7.1199   7.2383   7.2969   7.3575   7.4335   7.4923   7.5357   7.5583
     7.6610   7.7912   7.9986   8.1028   8.1519   8.1815   8.2477   8.3080
     8.3476   8.3595   8.4843   8.5268   8.5415   8.5771   8.6272   8.6901
     8.7396   8.7833   8.8378   8.8852   8.9091   9.0068   9.0691   9.1377
     9.1388   9.1568   9.1736   9.1781   9.2243   9.2713   9.3538   9.4163
     9.4379   9.5099   9.5384   9.6322   9.6981   9.7827   9.8312   9.8540
     9.8810   9.8993   9.9019   9.9213   9.9413   9.9797  10.0604  10.0880
    10.2447  10.2623  10.2802  10.2871  10.2889  10.2988  10.3213  10.4659
    10.5677  10.6177  10.7713  10.8050  10.9231  11.0847  11.1289  11.1393
    11.2217  11.3492  11.4104  11.4708  11.4876  11.5620  11.5890  11.5936
    11.6040  11.6132  11.6241  11.6579  11.6771  11.6909  11.7999  11.8688
    11.8842  11.9375  11.9521  11.9779  12.0965

     the Fermi energy is     2.8410 ev

!    total energy              =  -29508.79782243 Ry
     estimated scf accuracy    <       0.00000036 Ry
     smearing contrib. (-TS)   =      -0.02505474 Ry
     internal energy E=F+TS    =  -29508.77276769 Ry

     The total energy is F=E-TS. E is the sum of the following terms:
     one-electron contribution = -323202.32205137 Ry
     hartree contribution      =  161375.12902560 Ry
     xc contribution           =   -2759.56497458 Ry
     ewald contribution        =  135087.53732746 Ry
     one-center paw contrib.   =      -9.55209479 Ry

     convergence has been achieved in  23 iterations

     negative rho (up, down):  2.824E-03 0.000E+00

     Forces acting on atoms (cartesian axes, Ry/au):

     atom    1 type  1   force =     0.01682208   -0.00313456   -0.02360160
     atom    2 type  1   force =     0.00165973    0.00809889   -0.02643716
     atom    3 type  1   force =    -0.00682265   -0.03639575   -0.03898291
     atom    4 type  1   force =    -0.03344192    0.02421259   -0.03390221
     atom    5 type  1   force =     0.00350163   -0.00005596   -0.02087307
     atom    6 type  1   force =    -0.02600903   -0.01812459   -0.01834732
     atom    7 type  1   force =     0.01230046   -0.00733795   -0.02624205
     atom    8 type  1   force =     0.02581586    0.02771109   -0.03712058
     atom    9 type  1   force =    -0.00691944   -0.00354308   -0.02572629
     atom   10 type  1   force =     0.02274849   -0.01079859   -0.05408727
     atom   11 type  1   force =     0.00139897    0.02615016   -0.01458621
     atom   12 type  1   force =    -0.00056179   -0.00277405   -0.02398516
     atom   13 type  1   force =     0.00116404   -0.00453935   -0.02740936
     atom   14 type  1   force =    -0.00513590    0.01098790   -0.02647391
     atom   15 type  1   force =     0.00091297   -0.00690354   -0.02040850
     atom   16 type  1   force =     0.00396458   -0.01069638   -0.02136355
     atom   17 type  1   force =    -0.55813422   -0.57752204    0.44833918
     atom   18 type  1   force =    -0.67475327   -0.14313206    0.38967053
     atom   19 type  1   force =    -0.09855116   -0.82179064   -0.86293945
     atom   20 type  1   force =    -0.62765110    0.38536881   -0.93980000
     atom   21 type  1   force =    -0.03346698    1.01447029    0.37098719
     atom   22 type  1   force =     0.09471026   -0.50256453   -0.06361093
     atom   23 type  1   force =     0.21754466   -0.14833347    0.44293448
     atom   24 type  1   force =     0.62857595    0.44879464   -0.95302374
     atom   25 type  1   force =     0.41987862   -0.80399896    0.66766091
     atom   26 type  1   force =     0.20559363    0.01871716   -0.45247940
     atom   27 type  1   force =     0.35164415    0.30100467   -0.26770287
     atom   28 type  1   force =    -0.29027454    0.58064555    0.40886238
     atom   29 type  1   force =    -0.00518834   -0.00291820    0.00158114
     atom   30 type  1   force =     0.90231091   -0.08550713    0.68507199
     atom   31 type  1   force =    -0.76526193   -0.52572414    0.20442091
     atom   32 type  1   force =     0.26778507    0.75375272    0.45885471
     atom   33 type  1   force =    -0.00270006    0.00962338   -0.02924874
     atom   34 type  1   force =     0.01049209    0.00451958   -0.02793633
     atom   35 type  1   force =     0.00800985   -0.00972975   -0.02399130
     atom   36 type  1   force =    -0.00559914    0.00291346   -0.03119727
     atom   37 type  1   force =     0.00775979    0.00885011   -0.02440842
     atom   38 type  1   force =    -0.00038839   -0.02495910   -0.02015215
     atom   39 type  1   force =    -0.02199835    0.01670518   -0.01592283
     atom   40 type  1   force =     0.01431199    0.00164949   -0.02419715
     atom   41 type  1   force =    -0.03478012   -0.01819186   -0.02997100
     atom   42 type  1   force =     0.00106765    0.00135313   -0.01909415
     atom   43 type  1   force =     0.02595452    0.01547409   -0.01880826
     atom   44 type  1   force =    -0.00152398   -0.00475431   -0.02182340
     atom   45 type  1   force =     0.02357932   -0.02214228   -0.04121756
     atom   46 type  1   force =    -0.00999920    0.03891934   -0.03677012
     atom   47 type  1   force =    -0.00822597   -0.01298417   -0.02763291
     atom   48 type  1   force =    -0.01367816   -0.00056150   -0.03161143
     atom   49 type  1   force =    -0.45057828   -0.68403961    0.46007747
     atom   50 type  1   force =     0.36764315    0.21689304    0.47859006
     atom   51 type  1   force =    -0.60439692    0.18149962    0.39318709
     atom   52 type  1   force =    -0.00585964    0.00161218    0.00334375
     atom   53 type  1   force =     0.37421858   -0.85837863    0.55527145
     atom   54 type  1   force =     0.25758528   -0.23191838   -0.42360911
     atom   55 type  1   force =    -0.23259207    0.17512899    0.01714114
     atom   56 type  1   force =    -0.43103475    0.48460247    0.48596540
     atom   57 type  1   force =    -0.63317216   -0.37770220   -0.93245833
     atom   58 type  1   force =    -0.92768228    0.59367319   -0.08666934
     atom   59 type  1   force =     0.31667328   -0.32168201   -0.28385970
     atom   60 type  1   force =    -0.04132003   -0.50632186    0.42298545
     atom   61 type  1   force =     0.70639924   -0.36971897   -0.90336533
     atom   62 type  1   force =    -0.01795080    0.81591121   -0.88057227
     atom   63 type  1   force =     0.91000884    0.20542736    0.52152533
     atom   64 type  1   force =     0.39243256    0.79293281    0.53633877
     atom   65 type  2   force =    -0.05507885    0.07108684   -0.13842163
     atom   66 type  3   force =    -0.01772897    0.01671555    0.02642589
     atom   67 type  3   force =     0.05399217   -0.09652589    0.07280701

     Total force =     4.108770     Total SCF correction =     0.005142
     Energy error            =      1.4E+00 Ry
     Gradient error          =      1.0E+00 Ry/Bohr

     number of scf cycles    =   9
     number of bfgs steps    =   8

     energy             old  =  -29507.4168124144 Ry
     energy             new  =  -29508.7978224263 Ry

     CASE: energy            _new < energy            _old


     WARNING: info=200 for Hessian

     WARNING: bfgs curvature condition failed, Theta= 0.009
     new trust radius        =       0.8000000000 bohr
     new conv_thr            =       0.0000010000 Ry


ATOMIC_POSITIONS (angstrom)
Zn              -0.0000520000        1.5094260000        1.2182890000    0   0   0
Zn              -1.3072270000        3.7735190000        1.2182890000    0   0   0
Zn              -2.6144020000        6.0376130000        1.2182890000    0   0   0
Zn              -3.9215770000        8.3017060000        1.2182890000    0   0   0
Zn               2.6142980000        1.5094260000        1.2182890000    0   0   0
Zn               1.3071230000        3.7735190000        1.2182890000    0   0   0
Zn              -0.0000520000        6.0376130000        1.2182890000    0   0   0
Zn              -1.3072270000        8.3017060000        1.2182890000    0   0   0
Zn               5.2286480000        1.5094260000        1.2182890000    0   0   0
Zn               3.9214730000        3.7735190000        1.2182890000    0   0   0
Zn               2.6142980000        6.0376130000        1.2182890000    0   0   0
Zn               1.3071230000        8.3017060000        1.2182890000    0   0   0
Zn               7.8429980000        1.5094260000        1.2182890000    0   0   0
Zn               6.5358230000        3.7735190000        1.2182890000    0   0   0
Zn               5.2286480000        6.0376130000        1.2182890000    0   0   0
Zn               3.9214730000        8.3017060000        1.2182890000    0   0   0
Zn              -0.0302558363        1.4729085819        4.4542994166
Zn              -1.3381829577        3.7579567328        4.4273744321
Zn              -2.6144020000        6.0376130000        3.6548680000    0   0   0
Zn              -3.9215770000        8.3017060000        3.6548680000    0   0   0
Zn               2.6245101283        1.3083902264        4.4574570049
Zn               1.2346812731        3.8083832509        4.1808040898
Zn              -0.0484836888        6.0758564663        4.5195526551
Zn              -1.3072270000        8.3017060000        3.6548680000    0   0   0
Zn               5.2485631146        1.4365077439        4.4333750116
Zn               4.0213839063        3.6707908463        3.5441589381
Zn               2.5152600090        6.1091900723        4.1007772780
Zn               1.2871129370        8.3427905016        4.4164550762
Zn               7.8429980000        1.5094260000        3.6548680000    0   0   0
Zn               6.5841166953        3.7830974880        4.4446318741
Zn               5.3958093791        6.1452493536        4.4061121515
Zn               3.9409416306        8.3452684673        4.4299631870
Zn               1.3072270000        0.7546680000        1.2182890000    0   0   0
Zn               0.0000520000        3.0187610000        1.2182890000    0   0   0
Zn              -1.3071230000        5.2828550000        1.2182890000    0   0   0
Zn              -2.6142980000        7.5469480000        1.2182890000    0   0   0
Zn               3.9215770000        0.7546680000        1.2182890000    0   0   0
Zn               2.6144020000        3.0187610000        1.2182890000    0   0   0
Zn               1.3072270000        5.2828550000        1.2182890000    0   0   0
Zn               0.0000520000        7.5469480000        1.2182890000    0   0   0
Zn               6.5359270000        0.7546680000        1.2182890000    0   0   0
Zn               5.2287520000        3.0187610000        1.2182890000    0   0   0
Zn               3.9215770000        5.2828550000        1.2182890000    0   0   0
Zn               2.6144020000        7.5469480000        1.2182890000    0   0   0
Zn               9.1502770000        0.7546680000        1.2182890000    0   0   0
Zn               7.8431020000        3.0187610000        1.2182890000    0   0   0
Zn               6.5359270000        5.2828550000        1.2182890000    0   0   0
Zn               5.2287520000        7.5469480000        1.2182890000    0   0   0
Zn               1.2854550630        0.7044382944        4.4278916103
Zn              -0.0594827804        2.9639464116        4.5256922722
Zn              -1.3486214580        5.2971954341        4.4198174154
Zn              -2.6142980000        7.5469480000        3.6548680000    0   0   0
Zn               3.9481603776        0.7024346045        4.4624590259
Zn               2.5085068191        2.9051007377        3.8125885925
Zn               1.2708501492        5.2922555845        4.2441909659
Zn              -0.0561322701        7.5840695388        4.4424895188
Zn               6.5359270000        0.7546680000        3.6548680000    0   0   0
Zn               5.4636270737        2.8646549402        4.3034388575
Zn               3.9395012510        5.4152410131        3.8943835003
Zn               2.6269692161        7.6661960508        4.4790990525
Zn               9.1502770000        0.7546680000        3.6548680000    0   0   0
Zn               7.8431020000        3.0187610000        3.6548680000    0   0   0
Zn               6.5671245206        5.2687581974        4.4465159031
Zn               5.2600024124        7.5995272211        4.4199339500
O                3.2885629319        4.1701468648        8.2885802459
H                3.2852545991        2.9792059440        6.1145206000
H                2.4634037617        5.5918700883        6.8752912643



     Writing config-only to output data dir /home/ys/Research/PSID_server_room/qe/zinc_surface_water.relax/Zn_002_water/pwscf.save/ :
     XML data file
     NEW-OLD atomic charge density approx. for the potential

     negative rho (up, down):  5.275E-03 0.000E+00

     total cpu time spent up to now is     9560.4 secs

     Self-consistent Calculation

     iteration #  1     ecut=    50.00 Ry     beta= 0.70
     Davidson diagonalization with overlap
     ethr =  1.00E-06,  avg # of iterations = 12.0

     negative rho (up, down):  2.469E-03 0.000E+00

     total cpu time spent up to now is     9710.4 secs

     total energy              =  -29508.46441102 Ry
     estimated scf accuracy    <       2.06195675 Ry

     iteration #  2     ecut=    50.00 Ry     beta= 0.70
     Davidson diagonalization with overlap
     ethr =  1.60E-04,  avg # of iterations = 10.0

     negative rho (up, down):  2.828E-03 0.000E+00

     total cpu time spent up to now is     9773.2 secs

     total energy              =  -29506.87996115 Ry
     estimated scf accuracy    <     100.73178980 Ry

     iteration #  3     ecut=    50.00 Ry     beta= 0.70
     Davidson diagonalization with overlap
     ethr =  1.60E-04,  avg # of iterations =  8.0

     negative rho (up, down):  3.825E-03 0.000E+00

     total cpu time spent up to now is     9846.1 secs

     total energy              =  -29509.32177703 Ry
     estimated scf accuracy    <      43.24104243 Ry

     iteration #  4     ecut=    50.00 Ry     beta= 0.70
     Davidson diagonalization with overlap
     ethr =  1.60E-04,  avg # of iterations = 10.0

     negative rho (up, down):  3.992E-03 0.000E+00

     total cpu time spent up to now is     9905.8 secs

     total energy              =  -29510.50754524 Ry
     estimated scf accuracy    <      13.56402666 Ry

     iteration #  5     ecut=    50.00 Ry     beta= 0.70
     Davidson diagonalization with overlap
     ethr =  1.60E-04,  avg # of iterations =  2.0

     negative rho (up, down):  3.793E-03 0.000E+00

     total cpu time spent up to now is     9956.5 secs

     total energy              =  -29509.99269994 Ry
     estimated scf accuracy    <      10.99984051 Ry

     iteration #  6     ecut=    50.00 Ry     beta= 0.70
     Davidson diagonalization with overlap
     ethr =  1.60E-04,  avg # of iterations =  2.0

     negative rho (up, down):  2.727E-03 0.000E+00

     total cpu time spent up to now is    10007.3 secs

     total energy              =  -29510.37060898 Ry
     estimated scf accuracy    <       0.79134444 Ry

     iteration #  7     ecut=    50.00 Ry     beta= 0.70
     Davidson diagonalization with overlap
     ethr =  6.14E-05,  avg # of iterations =  2.0

     negative rho (up, down):  2.829E-03 0.000E+00

     total cpu time spent up to now is    10058.1 secs

     total energy              =  -29510.30360469 Ry
     estimated scf accuracy    <       2.01280700 Ry

     iteration #  8     ecut=    50.00 Ry     beta= 0.70
     Davidson diagonalization with overlap
     ethr =  6.14E-05,  avg # of iterations =  2.0

     negative rho (up, down):  2.878E-03 0.000E+00

     total cpu time spent up to now is    10108.8 secs

     total energy              =  -29510.26228043 Ry
     estimated scf accuracy    <       1.12292610 Ry

     iteration #  9     ecut=    50.00 Ry     beta= 0.70
     Davidson diagonalization with overlap
     ethr =  6.14E-05,  avg # of iterations =  2.0

     negative rho (up, down):  2.790E-03 0.000E+00

     total cpu time spent up to now is    10159.4 secs

     total energy              =  -29510.27005018 Ry
     estimated scf accuracy    <       0.28335050 Ry

     iteration # 10     ecut=    50.00 Ry     beta= 0.70
     Davidson diagonalization with overlap
     ethr =  2.20E-05,  avg # of iterations =  1.0

     negative rho (up, down):  2.759E-03 0.000E+00

     total cpu time spent up to now is    10202.6 secs

     total energy              =  -29510.27295193 Ry
     estimated scf accuracy    <       0.14763566 Ry

     iteration # 11     ecut=    50.00 Ry     beta= 0.70
     Davidson diagonalization with overlap
     ethr =  1.15E-05,  avg # of iterations =  1.0

     negative rho (up, down):  2.771E-03 0.000E+00

     total cpu time spent up to now is    10245.9 secs

     total energy              =  -29510.28533358 Ry
     estimated scf accuracy    <       0.18147595 Ry

     iteration # 12     ecut=    50.00 Ry     beta= 0.70
     Davidson diagonalization with overlap
     ethr =  1.15E-05,  avg # of iterations =  2.0

     negative rho (up, down):  2.818E-03 0.000E+00

     total cpu time spent up to now is    10296.6 secs

     total energy              =  -29510.29734519 Ry
     estimated scf accuracy    <       0.56360188 Ry

     iteration # 13     ecut=    50.00 Ry     beta= 0.70
     Davidson diagonalization with overlap
--------------------------------------------------------------------------
Primary job  terminated normally, but 1 process returned
a non-zero exit code. Per user-direction, the job has been aborted.
--------------------------------------------------------------------------
--------------------------------------------------------------------------
mpirun noticed that process rank 10 with PID 0 on node psid01 exited on signal 9 (Killed).
--------------------------------------------------------------------------
