--------------------------------------------------------------------------
By default, for Open MPI 4.0 and later, infiniband ports on a device
are not used by default.  The intent is to use UCX for these devices.
You can override this policy by setting the btl_openib_allow_ib MCA parameter
to true.

  Local host:              psid01
  Local adapter:           mlx5_0
  Local port:              1

--------------------------------------------------------------------------
--------------------------------------------------------------------------
WARNING: There was an error initializing an OpenFabrics device.

  Local host:   psid01
  Local device: mlx5_0
--------------------------------------------------------------------------

     Program PWSCF v.7.3.1 starts on 11Feb2025 at  0:29:36 

     This program is part of the open-source Quantum ESPRESSO suite
     for quantum simulation of materials; please cite
         "P. Giannozzi et al., J. Phys.:Condens. Matter 21 395502 (2009);
         "P. Giannozzi et al., J. Phys.:Condens. Matter 29 465901 (2017);
         "P. Giannozzi et al., J. Chem. Phys. 152 154105 (2020);
          URL http://www.quantum-espresso.org", 
     in publications or presentations arising from this work. More details at
     http://www.quantum-espresso.org/quote

     Parallel version (MPI), running on    10 processors

     MPI processes distributed on     1 nodes
     71445 MiB available memory on the printing compute node when the environment starts

     Waiting for input...
     Reading input from standard input
Warning: card &CELL ignored
Warning: card / ignored

     Current dimensions of program PWSCF are:
     Max number of different atomic species (ntypx) = 10
     Max number of k-points (npk) =  40000
     Max angular momentum in pseudopotentials (lmaxx) =  4
     file O.pbe-n-kjpaw_psl.0.1.UPF: wavefunction(s)  2P renormalized

     gamma-point specific algorithms are used

     R & G space division:  proc/nbgrp/npool/nimage =      10
     Subspace diagonalization in iterative solution of the eigenvalue problem:
     one sub-group per band group will be used
     custom distributed-memory algorithm (size of sub-group:  3*  3 procs)


     Parallelization info
     --------------------
     sticks:   dense  smooth     PW     G-vecs:    dense   smooth      PW
     Min        1345     538    134               300132    75930    9482
     Max        1348     542    136               300142    75938    9504
     Sum       13471    5389   1345              3001349   759343   94917

     Using Slab Decomposition



     bravais-lattice index     =            4
     lattice parameter (alat)  =      19.7616  a.u.
     unit-cell volume          =   15896.6765 (a.u.)^3
     number of atoms/cell      =           67
     number of atomic types    =            3
     number of electrons       =      1288.00
     number of Kohn-Sham states=          773
     kinetic-energy cutoff     =      50.0000  Ry
     charge density cutoff     =     500.0000  Ry
     scf convergence threshold =      1.0E-06
     mixing beta               =       0.7000
     number of iterations used =            8  plain     mixing
     energy convergence thresh.=      1.0E-04
     force convergence thresh. =      1.0E-03
     Exchange-correlation= PBE
                           (   1   4   3   4   0   0   0)
     nstep                     =          100


     celldm(1)=  19.761622  celldm(2)=   0.000000  celldm(3)=   2.378526
     celldm(4)=   0.000000  celldm(5)=   0.000000  celldm(6)=   0.000000

     crystal axes: (cart. coord. in units of alat)
               a(1) = (   1.000000   0.000000   0.000000 )  
               a(2) = (  -0.500000   0.866025   0.000000 )  
               a(3) = (   0.000000   0.000000   2.378526 )  

     reciprocal axes: (cart. coord. in units 2 pi/alat)
               b(1) = (  1.000000  0.577350 -0.000000 )  
               b(2) = (  0.000000  1.154701  0.000000 )  
               b(3) = (  0.000000 -0.000000  0.420428 )  


     PseudoPot. # 1 for Zn read from file:
     /home/ys/qe-7.3.1/pseudo/Standard_solid-state_pseudopotentials_SSSP_1.3.0_PBE_efficiency/Zn_pbe_v1.uspp.F.UPF
     MD5 check sum: df62231357ef9e81f77b2b3087fa5675
     Pseudo is Ultrasoft, Zval = 20.0
     Generated by new atomic code, or converted to UPF format
     Using radial grid of  943 points,  6 beta functions with: 
                l(1) =   0
                l(2) =   0
                l(3) =   1
                l(4) =   1
                l(5) =   2
                l(6) =   2
     Q(r) pseudized with  8 coefficients,  rinner =    1.100   1.100   1.100
                                                       1.100   1.100

     PseudoPot. # 2 for O  read from file:
     /home/ys/qe-7.3.1/pseudo/Standard_solid-state_pseudopotentials_SSSP_1.3.0_PBE_efficiency/O.pbe-n-kjpaw_psl.0.1.UPF
     MD5 check sum: 0234752ac141de4415c5fc33072bef88
     Pseudo is Projector augmented-wave + core cor, Zval =  6.0
     Generated using "atomic" code by A. Dal Corso  v.5.0.99 svn rev. 10869
     Shape of augmentation charge: BESSEL
     Using radial grid of 1095 points,  4 beta functions with: 
                l(1) =   0
                l(2) =   0
                l(3) =   1
                l(4) =   1
     Q(r) pseudized with 0 coefficients 


     PseudoPot. # 3 for H  read from file:
     /home/ys/qe-7.3.1/pseudo/Standard_solid-state_pseudopotentials_SSSP_1.3.0_PBE_efficiency/H.pbe-rrkjus_psl.1.0.0.UPF
     MD5 check sum: f52b6d4d1c606e5624b1dc7b2218f220
     Pseudo is Ultrasoft, Zval =  1.0
     Generated using "atomic" code by A. Dal Corso  v.5.1
     Using radial grid of  929 points,  2 beta functions with: 
                l(1) =   0
                l(2) =   0
     Q(r) pseudized with 0 coefficients 


     atomic species   valence    mass     pseudopotential
     Zn               20.00    65.39000     Zn( 1.00)
     O                 6.00    15.99940     O ( 1.00)
     H                 1.00     1.00794     H ( 1.00)

     No symmetry found



   Cartesian axes

     site n.     atom                  positions (alat units)
         1        Zn     tau(   1) = (  -0.0000050   0.1443405   0.1165002  )
         2        Zn     tau(   2) = (  -0.1250050   0.3608468   0.1165002  )
         3        Zn     tau(   3) = (  -0.2500050   0.5773532   0.1165002  )
         4        Zn     tau(   4) = (  -0.3750050   0.7938595   0.1165002  )
         5        Zn     tau(   5) = (   0.2499950   0.1443405   0.1165002  )
         6        Zn     tau(   6) = (   0.1249950   0.3608468   0.1165002  )
         7        Zn     tau(   7) = (  -0.0000050   0.5773532   0.1165002  )
         8        Zn     tau(   8) = (  -0.1250050   0.7938595   0.1165002  )
         9        Zn     tau(   9) = (   0.4999950   0.1443405   0.1165002  )
        10        Zn     tau(  10) = (   0.3749950   0.3608468   0.1165002  )
        11        Zn     tau(  11) = (   0.2499950   0.5773532   0.1165002  )
        12        Zn     tau(  12) = (   0.1249950   0.7938595   0.1165002  )
        13        Zn     tau(  13) = (   0.7499950   0.1443405   0.1165002  )
        14        Zn     tau(  14) = (   0.6249950   0.3608468   0.1165002  )
        15        Zn     tau(  15) = (   0.4999950   0.5773532   0.1165002  )
        16        Zn     tau(  16) = (   0.3749950   0.7938595   0.1165002  )
        17        Zn     tau(  17) = (  -0.0000050   0.1443405   0.3495006  )
        18        Zn     tau(  18) = (  -0.1250050   0.3608468   0.3495006  )
        19        Zn     tau(  19) = (  -0.2500050   0.5773532   0.3495006  )
        20        Zn     tau(  20) = (  -0.3750050   0.7938595   0.3495006  )
        21        Zn     tau(  21) = (   0.2499950   0.1443405   0.3495006  )
        22        Zn     tau(  22) = (   0.1249950   0.3608468   0.3495006  )
        23        Zn     tau(  23) = (  -0.0000050   0.5773532   0.3495006  )
        24        Zn     tau(  24) = (  -0.1250050   0.7938595   0.3495006  )
        25        Zn     tau(  25) = (   0.4999950   0.1443405   0.3495006  )
        26        Zn     tau(  26) = (   0.3749950   0.3608468   0.3495006  )
        27        Zn     tau(  27) = (   0.2499950   0.5773532   0.3495006  )
        28        Zn     tau(  28) = (   0.1249950   0.7938595   0.3495006  )
        29        Zn     tau(  29) = (   0.7499950   0.1443405   0.3495006  )
        30        Zn     tau(  30) = (   0.6249950   0.3608468   0.3495006  )
        31        Zn     tau(  31) = (   0.4999950   0.5773532   0.3495006  )
        32        Zn     tau(  32) = (   0.3749950   0.7938595   0.3495006  )
        33        Zn     tau(  33) = (   0.1250050   0.0721659   0.1165002  )
        34        Zn     tau(  34) = (   0.0000050   0.2886722   0.1165002  )
        35        Zn     tau(  35) = (  -0.1249950   0.5051786   0.1165002  )
        36        Zn     tau(  36) = (  -0.2499950   0.7216849   0.1165002  )
        37        Zn     tau(  37) = (   0.3750050   0.0721659   0.1165002  )
        38        Zn     tau(  38) = (   0.2500050   0.2886722   0.1165002  )
        39        Zn     tau(  39) = (   0.1250050   0.5051786   0.1165002  )
        40        Zn     tau(  40) = (   0.0000050   0.7216849   0.1165002  )
        41        Zn     tau(  41) = (   0.6250050   0.0721659   0.1165002  )
        42        Zn     tau(  42) = (   0.5000050   0.2886722   0.1165002  )
        43        Zn     tau(  43) = (   0.3750050   0.5051786   0.1165002  )
        44        Zn     tau(  44) = (   0.2500050   0.7216849   0.1165002  )
        45        Zn     tau(  45) = (   0.8750050   0.0721659   0.1165002  )
        46        Zn     tau(  46) = (   0.7500050   0.2886722   0.1165002  )
        47        Zn     tau(  47) = (   0.6250050   0.5051786   0.1165002  )
        48        Zn     tau(  48) = (   0.5000050   0.7216849   0.1165002  )
        49        Zn     tau(  49) = (   0.1250050   0.0721659   0.3495006  )
        50        Zn     tau(  50) = (   0.0000050   0.2886722   0.3495006  )
        51        Zn     tau(  51) = (  -0.1249950   0.5051786   0.3495006  )
        52        Zn     tau(  52) = (  -0.2499950   0.7216849   0.3495006  )
        53        Zn     tau(  53) = (   0.3750050   0.0721659   0.3495006  )
        54        Zn     tau(  54) = (   0.2500050   0.2886722   0.3495006  )
        55        Zn     tau(  55) = (   0.1250050   0.5051786   0.3495006  )
        56        Zn     tau(  56) = (   0.0000050   0.7216849   0.3495006  )
        57        Zn     tau(  57) = (   0.6250050   0.0721659   0.3495006  )
        58        Zn     tau(  58) = (   0.5000050   0.2886722   0.3495006  )
        59        Zn     tau(  59) = (   0.3750050   0.5051786   0.3495006  )
        60        Zn     tau(  60) = (   0.2500050   0.7216849   0.3495006  )
        61        Zn     tau(  61) = (   0.8750050   0.0721659   0.3495006  )
        62        Zn     tau(  62) = (   0.7500050   0.2886722   0.3495006  )
        63        Zn     tau(  63) = (   0.6250050   0.5051786   0.3495006  )
        64        Zn     tau(  64) = (   0.5000050   0.7216849   0.3495006  )
        65        O      tau(  65) = (   0.2963200   0.4222047   0.5295313  )
        66        H      tau(  66) = (   0.3072150   0.3316618   0.5465378  )
        67        H      tau(  67) = (   0.2699400   0.4577291   0.6110672  )

     number of k points=     1  Gaussian smearing, width (Ry)=  0.0100
                       cart. coord. in units 2pi/alat
        k(    1) = (   0.0000000   0.0000000   0.0000000), wk =   2.0000000

     Dense  grid:  1500675 G-vectors     FFT dimensions: ( 144, 144, 360)

     Smooth grid:   379672 G-vectors     FFT dimensions: (  90,  90, 216)

     Estimated max dynamical RAM per process >       1.10 GB

     Estimated total dynamical RAM >      11.04 GB

     Initial potential from superposition of free atoms

     starting charge    1287.9910, renormalised to    1288.0000

     negative rho (up, down):  2.425E-03 0.000E+00
[psid01:222562] 9 more processes have sent help message help-mpi-btl-openib.txt / ib port not selected
[psid01:222562] Set MCA parameter "orte_base_help_aggregate" to 0 to see all help / error messages
[psid01:222562] 9 more processes have sent help message help-mpi-btl-openib.txt / error in device init
     Starting wfcs are  838 randomized atomic wfcs
     Checking if some PAW data can be deallocated... 

     total cpu time spent up to now is       48.5 secs

     Self-consistent Calculation

     iteration #  1     ecut=    50.00 Ry     beta= 0.70
     Davidson diagonalization with overlap
     ethr =  1.00E-02,  avg # of iterations =  8.0

     Threshold (ethr) on eigenvalues was too large:
     Diagonalizing with lowered threshold

     Davidson diagonalization with overlap
     ethr =  1.14E-04,  avg # of iterations =  4.0

     negative rho (up, down):  1.092E-03 0.000E+00

     total cpu time spent up to now is      431.1 secs

     total energy              =  -29502.30369149 Ry
     estimated scf accuracy    <       1.46946102 Ry

     iteration #  2     ecut=    50.00 Ry     beta= 0.70
     Davidson diagonalization with overlap
     ethr =  1.14E-04,  avg # of iterations = 10.0

     negative rho (up, down):  1.712E-03 0.000E+00

     total cpu time spent up to now is      640.5 secs

     total energy              =  -29502.12532259 Ry
     estimated scf accuracy    <       1.98628347 Ry

     iteration #  3     ecut=    50.00 Ry     beta= 0.70
     Davidson diagonalization with overlap
     ethr =  1.14E-04,  avg # of iterations =  8.0

     negative rho (up, down):  2.209E-03 0.000E+00

     total cpu time spent up to now is      835.5 secs

     total energy              =  -29501.88547245 Ry
     estimated scf accuracy    <      12.19314600 Ry

     iteration #  4     ecut=    50.00 Ry     beta= 0.70
     Davidson diagonalization with overlap
     ethr =  1.14E-04,  avg # of iterations = 11.0

     negative rho (up, down):  2.022E-03 0.000E+00

     total cpu time spent up to now is     1007.1 secs

     total energy              =  -29502.59624398 Ry
     estimated scf accuracy    <       1.34247558 Ry

     iteration #  5     ecut=    50.00 Ry     beta= 0.70
     Davidson diagonalization with overlap
     ethr =  1.04E-04,  avg # of iterations =  8.0

     negative rho (up, down):  2.028E-03 0.000E+00

     total cpu time spent up to now is     1167.3 secs

     total energy              =  -29502.66114033 Ry
     estimated scf accuracy    <       0.25292129 Ry

     iteration #  6     ecut=    50.00 Ry     beta= 0.70
     Davidson diagonalization with overlap
     ethr =  1.96E-05,  avg # of iterations = 13.0

     negative rho (up, down):  2.022E-03 0.000E+00

     total cpu time spent up to now is     1334.5 secs

     total energy              =  -29502.68791625 Ry
     estimated scf accuracy    <       0.18223002 Ry

     iteration #  7     ecut=    50.00 Ry     beta= 0.70
     Davidson diagonalization with overlap
     ethr =  1.41E-05,  avg # of iterations =  2.0

     negative rho (up, down):  2.025E-03 0.000E+00

     total cpu time spent up to now is     1490.2 secs

     total energy              =  -29502.70486102 Ry
     estimated scf accuracy    <       0.00859574 Ry

     iteration #  8     ecut=    50.00 Ry     beta= 0.70
     Davidson diagonalization with overlap
     ethr =  6.67E-07,  avg # of iterations =  5.0

     negative rho (up, down):  2.033E-03 0.000E+00

     total cpu time spent up to now is     1648.2 secs

     total energy              =  -29502.70589846 Ry
     estimated scf accuracy    <       0.00189058 Ry

     iteration #  9     ecut=    50.00 Ry     beta= 0.70
     Davidson diagonalization with overlap
     ethr =  1.47E-07,  avg # of iterations =  2.0

     negative rho (up, down):  2.037E-03 0.000E+00

     total cpu time spent up to now is     1802.8 secs

     total energy              =  -29502.70593277 Ry
     estimated scf accuracy    <       0.00236444 Ry

     iteration # 10     ecut=    50.00 Ry     beta= 0.70
     Davidson diagonalization with overlap
     ethr =  1.47E-07,  avg # of iterations =  2.0

     negative rho (up, down):  2.038E-03 0.000E+00

     total cpu time spent up to now is     1957.6 secs

     total energy              =  -29502.70619901 Ry
     estimated scf accuracy    <       0.00036823 Ry

     iteration # 11     ecut=    50.00 Ry     beta= 0.70
     Davidson diagonalization with overlap
     ethr =  2.86E-08,  avg # of iterations =  2.0

     negative rho (up, down):  2.039E-03 0.000E+00

     total cpu time spent up to now is     2111.6 secs

     total energy              =  -29502.70623794 Ry
     estimated scf accuracy    <       0.00002492 Ry

     iteration # 12     ecut=    50.00 Ry     beta= 0.70
     Davidson diagonalization with overlap
     ethr =  1.93E-09,  avg # of iterations =  2.0

     negative rho (up, down):  2.039E-03 0.000E+00

     total cpu time spent up to now is     2275.6 secs

     total energy              =  -29502.70623424 Ry
     estimated scf accuracy    <       0.00011423 Ry

     iteration # 13     ecut=    50.00 Ry     beta= 0.70
     Davidson diagonalization with overlap
     ethr =  1.93E-09,  avg # of iterations =  2.0

     negative rho (up, down):  2.040E-03 0.000E+00

     total cpu time spent up to now is     2429.9 secs

     total energy              =  -29502.70624492 Ry
     estimated scf accuracy    <       0.00000853 Ry

     iteration # 14     ecut=    50.00 Ry     beta= 0.70
     Davidson diagonalization with overlap
     ethr =  6.62E-10,  avg # of iterations =  2.0

     negative rho (up, down):  2.040E-03 0.000E+00

     total cpu time spent up to now is     2584.7 secs

     End of self-consistent calculation

          k = 0.0000 0.0000 0.0000 ( 47459 PWs)   bands (ev):

  -128.9514-128.9295-128.7332-128.7048-128.6915-128.6837-128.6786-128.6748
  -128.6730-128.6717-128.6674-128.6632-128.6590-128.6449-128.3127-128.3064
  -128.2761-128.2707-128.2649-128.2617-128.2574-128.2552-128.2544-128.2524
  -128.2516-128.2491-128.2485-128.2457-128.2394-128.2348-128.2342-128.2249
  -127.6296-127.6164-127.5859-127.5788-127.5734-127.5706-127.5668-127.5643
  -127.5636-127.5614-127.5607-127.5583-127.5571-127.5549-127.5490-127.5448
  -127.5445-127.5346-127.1807-127.1522-127.1424-127.1362-127.1311-127.1268
  -127.1258-127.1242-127.1207-127.1139-127.1110-127.0948-126.8565-126.8518
   -84.9472 -84.9365 -84.8948 -84.8914 -84.8902 -84.8878 -84.8867 -84.8839
   -84.8821 -84.8808 -84.8794 -84.8763 -84.7909 -84.7877 -84.7852 -84.7837
   -84.7806 -84.7748 -84.6408 -84.6323 -84.6239 -84.6192 -84.6156 -84.6114
   -84.6110 -84.6090 -84.6080 -84.6074 -84.6059 -84.6012 -84.4337 -84.4301
   -84.4256 -84.4232 -84.0962 -84.0919 -84.0849 -84.0798 -84.0756 -84.0738
   -84.0714 -84.0707 -84.0690 -84.0663 -84.0645 -84.0637 -83.6106 -83.6084
   -83.6062 -83.6002 -83.5975 -83.5936 -83.3430 -83.3416 -83.3382 -83.3370
   -83.3284 -83.3266 -83.3257 -83.3238 -83.3233 -83.3210 -83.3203 -83.3175
   -82.0646 -82.0045 -81.9445 -81.9444 -81.9400 -81.9379 -81.9347 -81.9263
   -81.9243 -81.9241 -81.9214 -81.9209 -81.9189 -81.9184 -81.9164 -81.9149
   -81.8997 -81.8823 -81.8740 -81.8690 -81.8651 -81.8627 -81.8574 -81.8453
   -81.8360 -81.8258 -81.7038 -81.7006 -81.6717 -81.6651 -81.6644 -81.6641
   -81.6636 -81.6600 -81.6578 -81.6548 -81.6522 -81.6451 -81.6393 -81.6383
   -81.6328 -81.6316 -81.6269 -81.6247 -81.6228 -81.6185 -81.6116 -81.6048
   -81.6016 -81.5888 -81.3488 -81.3263 -81.2890 -81.2847 -81.2757 -81.2680
   -81.2626 -81.2615 -81.2577 -81.2569 -81.2541 -81.2515 -81.2461 -81.2452
   -81.2397 -81.2330 -81.2311 -81.2165 -81.1978 -81.1957 -81.1874 -81.1800
   -81.1769 -81.1756 -81.1726 -81.1716 -81.1709 -81.1676 -81.1663 -81.1652
   -81.0851 -81.0565 -81.0503 -81.0339 -81.0279 -81.0269 -81.0229 -81.0197
   -81.0175 -81.0090 -80.9977 -80.9833 -80.8887 -80.8673 -80.8194 -80.8178
   -80.8074 -80.8060 -80.6424 -80.6310 -80.6212 -80.6181 -80.6142 -80.6111
   -80.6103 -80.6101 -80.6080 -80.6075 -80.6065 -80.6014 -80.4493 -80.4406
   -80.4374 -80.4337 -80.4307 -80.4266 -80.3676 -80.3594 -80.3397 -80.3367
   -80.3339 -80.3289 -80.3262 -80.3258 -80.3239 -80.3238 -80.3186 -80.3176
   -20.6090 -15.6074 -15.6039 -15.5722 -15.5715 -15.5670 -15.5658 -15.4776
   -15.4762 -15.4512 -15.4504 -15.4459 -15.4446 -14.8873 -14.8857 -14.8840
   -14.7589 -14.7569 -14.7553 -13.4973 -13.4963 -13.4929 -13.4695 -13.4670
   -13.4656 -13.4632 -13.4591 -13.4546 -13.4515 -13.4483 -13.4464 -13.4458
   -13.3300 -13.3261 -13.3234 -13.3200 -13.3184 -13.3168 -13.1633 -12.8860
   -12.8771 -12.8371 -12.8354 -12.8314 -12.8295 -12.6295 -12.6244 -12.6217
   -12.6201 -12.6179 -12.6164 -12.5865 -12.5850 -12.5832 -12.5803 -12.5793
   -12.5771 -12.2609 -12.2568 -12.2325 -12.2188 -12.2067 -12.1921 -12.1897
   -12.1858 -12.1837 -12.1627 -12.1600 -12.1576 -12.1561 -12.1419 -12.1408
   -12.1297 -12.1280 -12.1257 -12.1244 -12.1148 -12.1136 -12.0396 -12.0135
   -12.0082 -11.9951 -11.9878 -11.9813 -11.8856 -11.8750 -11.8713 -11.8578
   -11.8504 -11.8432 -11.8422 -11.8370 -11.8231 -11.8168 -11.8132 -11.8075
   -11.7893 -11.7868 -11.7848 -11.7619 -11.7577 -11.7556 -11.6278 -11.4959
   -11.4923 -11.4870 -11.4806 -11.4797 -11.4728 -11.4145 -11.4097 -11.4046
   -11.3958 -11.3941 -11.3904 -11.3270 -11.3248 -11.3186 -11.3134 -11.3073
   -11.3059 -11.2940 -11.2901 -11.2046 -11.2019 -11.1979 -11.1953 -11.1855
   -11.1815 -10.9836 -10.9813 -10.9616 -10.9450 -10.9394 -10.9101 -10.9080
   -10.9048 -10.9035 -10.8989 -10.8920 -10.8883 -10.8843 -10.8815 -10.7186
   -10.7167 -10.7125 -10.6471 -10.6409 -10.6349 -10.6324 -10.6198 -10.6169
   -10.3819 -10.3316 -10.3225 -10.3128 -10.3061 -10.2995 -10.2680 -10.2676
   -10.2482 -10.2478 -10.2154 -10.2151 -10.1726 -10.1719 -10.0794 -10.0708
   -10.0611 -10.0584 -10.0438 -10.0412  -9.2599  -9.2569  -9.2551  -9.2517
    -9.2416  -9.2380  -9.0281  -8.5259  -8.5251  -8.5226  -8.3310  -8.2627
    -8.2608  -8.2538  -8.2437  -8.2001  -8.0037  -7.9688  -7.9670  -7.9663
    -7.9627  -7.9600  -7.9360  -7.8407  -7.8305  -7.8293  -7.8278  -7.8258
    -7.8247  -7.8106  -7.8072  -7.7960  -7.7916  -7.7530  -7.7504  -7.7464
    -7.7405  -7.6694  -7.6341  -7.6296  -7.5773  -7.4978  -7.4652  -7.4603
    -7.4542  -7.4501  -7.4239  -7.3939  -7.3730  -7.3677  -7.3673  -7.3592
    -7.3564  -7.3534  -7.3501  -7.3369  -7.3316  -7.3255  -7.2272  -7.1686
    -7.1663  -7.1545  -7.1076  -7.1023  -7.1011  -7.0993  -7.0981  -7.0956
    -7.0337  -7.0315  -7.0294  -7.0280  -7.0267  -7.0246  -6.9887  -6.9693
    -6.9682  -6.9557  -6.9544  -6.9518  -6.9195  -6.9041  -6.8225  -6.5821
    -6.5646  -6.5625  -6.5563  -6.5496  -6.5450  -6.4427  -6.4369  -6.2659
    -6.2512  -6.2250  -6.2116  -6.1904  -6.1794  -6.1740  -6.1669  -6.1104
    -5.9321  -5.9028  -5.8957  -5.8884  -5.8829  -5.8825  -5.8778  -5.7746
    -5.7686  -5.7647  -5.7589  -5.7585  -5.7532  -5.7169  -5.6492  -5.6414
    -5.6367  -5.6008  -5.5458  -5.4953  -5.4832  -5.4768  -5.4728  -5.4452
    -5.4265  -5.4242  -5.4219  -5.3957  -5.3831  -5.3759  -5.3656  -5.3616
    -5.3579  -5.3427  -5.3419  -5.3402  -5.3003  -5.2939  -5.2847  -5.2521
    -5.2453  -5.2391  -5.2113  -5.2088  -5.2042  -5.2028  -5.1663  -5.1655
    -5.1630  -5.1624  -5.1616  -5.1494  -5.1467  -5.1444  -5.1418  -5.1394
    -5.1349  -5.1331  -4.6449  -4.3280  -4.3109  -4.1037  -3.9432  -3.9428
    -3.9204  -3.9183  -3.9159  -3.9083  -3.7209  -3.7206  -3.7007  -3.6994
    -3.6978  -3.6939  -3.4289  -3.0472  -2.5532  -2.5461  -2.5395  -2.4952
    -2.2332  -2.0528  -1.3473  -1.3304  -1.1644  -0.9342  -0.9299  -0.9201
    -0.4563  -0.4471  -0.4388  -0.4323  -0.3232   0.0993   1.5117   1.5533
     1.6227   2.3686   2.3929   2.3948   2.3964   2.3977   2.4887   2.6104
     2.6149   2.6176   2.6254   2.6299   2.6344   2.9189   3.8630   3.8854
     3.9227   3.9743   4.0019   4.0984   4.5894   4.6562   4.7146   4.9343
     5.0620   5.0702   5.0780   5.1007   5.1060   5.1606   5.1633   5.1727
     5.2185   5.2240   5.3385   5.8410   5.8474   5.8667   5.9084   5.9104
     5.9266   6.1433   6.8033   6.9319   6.9701   6.9788   6.9854   6.9922
     6.9953   7.0155   7.0319   7.0389   7.1857   7.4480   7.6141   7.8876
     7.9573   8.1613   8.2079   8.2417   8.2745   8.3550   8.3630   8.3723
     8.6287   8.7183   8.7335   8.7739   8.7789   8.7824   8.7969   8.8267
     8.8607   8.8888   8.8897   8.9044   9.0090   9.1906   9.2449   9.2640
     9.3572   9.3723   9.5135   9.5741   9.6438   9.6818   9.7275   9.7359
     9.7547   9.8453  10.0381  10.0691  10.1208  10.1229  10.1289  10.1463
    10.2715  10.2961  10.3474  10.3839  10.4044  10.4513  10.4577  10.4883
    10.5181  10.5890  10.6003  10.6277  10.7187  10.7806  10.8277  10.8707
    10.9612  11.0389  11.1304  11.1735  11.1818  11.2323  11.3225  11.3602
    11.4069  11.4663  11.4769  11.4822  11.4846  11.4909  11.5000  11.5088
    11.5229  11.5328  11.5383  11.5448  11.5589  11.6076  11.6182  11.7264
    11.7688  11.7743  11.8076  11.8519  11.8681  11.9338  11.9463  11.9784
    11.9838  12.0049  12.0188  12.1560  12.4058

     the Fermi energy is     4.3428 ev

!    total energy              =  -29502.70624484 Ry
     estimated scf accuracy    <       0.00000088 Ry
     smearing contrib. (-TS)   =      -0.00048115 Ry
     internal energy E=F+TS    =  -29502.70576369 Ry

     The total energy is F=E-TS. E is the sum of the following terms:
     one-electron contribution = -345979.01313596 Ry
     hartree contribution      =  172803.50666512 Ry
     xc contribution           =   -2766.67252468 Ry
     ewald contribution        =  146448.99232491 Ry
     one-center paw contrib.   =      -9.51909308 Ry

     convergence has been achieved in  14 iterations

     negative rho (up, down):  2.040E-03 0.000E+00

     Forces acting on atoms (cartesian axes, Ry/au):

     atom    1 type  1   force =     0.00286512   -0.00349686   -0.06201090
     atom    2 type  1   force =    -0.00146812    0.00305027   -0.06422340
     atom    3 type  1   force =     0.00410562   -0.00163210   -0.06356131
     atom    4 type  1   force =     0.00071435    0.00286641   -0.06414093
     atom    5 type  1   force =    -0.00083850   -0.00106990   -0.05990999
     atom    6 type  1   force =     0.00381965   -0.00039410   -0.06454741
     atom    7 type  1   force =    -0.00063769   -0.00020503   -0.06134744
     atom    8 type  1   force =     0.00278003    0.00071082   -0.05910925
     atom    9 type  1   force =     0.00230668   -0.00308381   -0.06437638
     atom   10 type  1   force =     0.00041165   -0.00016597   -0.07260817
     atom   11 type  1   force =     0.00190195   -0.00256766   -0.06574154
     atom   12 type  1   force =    -0.00084119    0.00373296   -0.06666032
     atom   13 type  1   force =     0.00058924   -0.00152893   -0.06045297
     atom   14 type  1   force =    -0.00069015   -0.00016795   -0.06156660
     atom   15 type  1   force =    -0.00175083   -0.00168643   -0.05904619
     atom   16 type  1   force =     0.00305381    0.00070543   -0.06443867
     atom   17 type  1   force =    -0.00048020   -0.00237471    0.06442110
     atom   18 type  1   force =     0.00099244   -0.00098249    0.06146325
     atom   19 type  1   force =     0.00125254    0.00278633    0.06345777
     atom   20 type  1   force =     0.00288299   -0.00036162    0.06220007
     atom   21 type  1   force =    -0.00037980   -0.00154418    0.06572061
     atom   22 type  1   force =    -0.01427992   -0.00248345    0.04048605
     atom   23 type  1   force =     0.00023655   -0.00088209    0.06470308
     atom   24 type  1   force =    -0.00115580   -0.00170205    0.06481802
     atom   25 type  1   force =     0.00329021   -0.00138827    0.06146659
     atom   26 type  1   force =     0.03588001   -0.01817322   -0.02010349
     atom   27 type  1   force =    -0.01026948    0.02144940    0.02948403
     atom   28 type  1   force =    -0.00032253    0.00241010    0.05952904
     atom   29 type  1   force =     0.00301833   -0.00058040    0.06606951
     atom   30 type  1   force =    -0.00108125   -0.00098804    0.06258747
     atom   31 type  1   force =     0.00669725    0.00317391    0.05642099
     atom   32 type  1   force =     0.00414832    0.00338670    0.06117978
     atom   33 type  1   force =    -0.00142858   -0.00197832   -0.06556776
     atom   34 type  1   force =    -0.00087583    0.00115847   -0.05943425
     atom   35 type  1   force =    -0.00432225   -0.00152949   -0.06488594
     atom   36 type  1   force =    -0.00158948    0.00126345   -0.06002768
     atom   37 type  1   force =     0.00094728   -0.00241272   -0.06388054
     atom   38 type  1   force =     0.00008470    0.00244910   -0.06513272
     atom   39 type  1   force =     0.00288755   -0.00023397   -0.06323662
     atom   40 type  1   force =    -0.00246881    0.00502111   -0.06303892
     atom   41 type  1   force =    -0.00270521   -0.00276944   -0.06382701
     atom   42 type  1   force =    -0.00299150    0.00144072   -0.05965847
     atom   43 type  1   force =    -0.00094119    0.00027306   -0.07322914
     atom   44 type  1   force =    -0.00251023   -0.00004414   -0.06113002
     atom   45 type  1   force =    -0.00021318   -0.00122301   -0.05861396
     atom   46 type  1   force =     0.00110736    0.00178109   -0.06284062
     atom   47 type  1   force =    -0.00217227    0.00005670   -0.06025327
     atom   48 type  1   force =    -0.00072267    0.00189818   -0.06233652
     atom   49 type  1   force =    -0.00139195   -0.00116355    0.05983473
     atom   50 type  1   force =    -0.00082208    0.00026417    0.06534918
     atom   51 type  1   force =    -0.00141257    0.00019931    0.06052482
     atom   52 type  1   force =     0.00022379    0.00216606    0.06625660
     atom   53 type  1   force =    -0.00118426   -0.00393540    0.06345844
     atom   54 type  1   force =    -0.01854161   -0.03278940    0.00546297
     atom   55 type  1   force =    -0.01094239    0.00495293    0.04346460
     atom   56 type  1   force =    -0.00499864    0.00265683    0.06315919
     atom   57 type  1   force =    -0.00012479    0.00141305    0.06195805
     atom   58 type  1   force =     0.00580311   -0.00320482    0.05569852
     atom   59 type  1   force =     0.01698820    0.02135755    0.01936608
     atom   60 type  1   force =    -0.00179328   -0.00252232    0.06393443
     atom   61 type  1   force =    -0.00150590    0.00360103    0.06551550
     atom   62 type  1   force =     0.00035647   -0.00239571    0.06417367
     atom   63 type  1   force =    -0.00351621    0.00115010    0.06385926
     atom   64 type  1   force =     0.00103803    0.00097937    0.06164549
     atom   65 type  2   force =    -0.00620167    0.01402566    0.20546998
     atom   66 type  3   force =     0.00564203   -0.03645203    0.03146609
     atom   67 type  3   force =    -0.00645325    0.02773328    0.03633345

     Total force =     0.536372     Total SCF correction =     0.016538

     BFGS Geometry Optimization
     Energy error            =      0.0E+00 Ry
     Gradient error          =      2.1E-01 Ry/Bohr

     number of scf cycles    =   1
     number of bfgs steps    =   0

     energy             new  =  -29502.7062448362 Ry

     new trust radius        =       0.2060414825 bohr
     new conv_thr            =       0.0000010000 Ry


ATOMIC_POSITIONS (angstrom)
Zn               0.0014641538        1.5075755426        1.1854742471
Zn              -1.3080038935        3.7751331350        1.1843034405
Zn              -2.6122293981        6.0367493299        1.1846538032
Zn              -3.9211989826        8.3032228384        1.1843470826
Zn               2.6138542824        1.5088598345        1.1865859990
Zn               1.3091442705        3.7733104514        1.1841319814
Zn              -0.0003894529        6.0375045040        1.1858253309
Zn              -1.3057558702        8.3020821480        1.1870097323
Zn               5.2298686418        1.5077941176        1.1842224889
Zn               3.9216908340        3.7734311741        1.1798664116
Zn               2.6153044693        6.0362542523        1.1835000739
Zn               1.3066778616        8.3036813974        1.1830138776
Zn               7.8433098111        1.5086169270        1.1862986684
Zn               6.5354577886        3.7734301266        1.1857093560
Zn               5.2277214996        6.0367205812        1.1870431025
Zn               3.9230890081        8.3020792997        1.1841895228
Zn              -0.0003061117        1.5081693558        3.6889581782
Zn              -1.3067018215        3.7729990905        3.6873929510
Zn              -2.6137391845        6.0390874599        3.6884484083
Zn              -3.9200513858        8.3015146371        3.6877828590
Zn               2.6140970175        1.5086088537        3.6896458507
Zn               1.2995663943        3.7722048161        3.6762922957
Zn               0.0000731745        6.0371462179        3.6891073950
Zn              -1.3078386225        8.3008053162        3.6891682168
Zn               5.2303891051        1.5086913610        3.6873947166
Zn               3.9404598852        3.7639021470        3.6442296921
Zn               2.6088636277        6.0489635313        3.6704702742
Zn               1.3069523228        8.3029813715        3.6863694131
Zn               7.8445952340        1.5091188664        3.6898304784
Zn               6.5352508259        3.7729961532        3.6879878619
Zn               5.2321920316        6.0392925591        3.6847247016
Zn               3.9236681962        8.3034981634        3.6872429437
Zn               1.3064710287        0.7536211202        1.1835920372
Zn              -0.0004114692        3.0193740384        1.1868377474
Zn              -1.3094102366        5.2820456267        1.1839528410
Zn              -2.6151391161        7.5476165915        1.1865237200
Zn               3.9220782793        0.7533912411        1.1844848730
Zn               2.6144468227        3.0200570075        1.1838222482
Zn               1.3087550250        5.2827311895        1.1848256224
Zn              -0.0012544354        7.5496050548        1.1849302424
Zn               6.5344954627        0.7532024731        1.1845132033
Zn               5.2271689659        3.0195233952        1.1867190952
Zn               3.9210789433        5.2829994951        1.1795378086
Zn               2.6130736459        7.5469246432        1.1859403870
Zn               9.1501641877        0.7540208118        1.1872718262
Zn               7.8436879888        3.0197035143        1.1850351743
Zn               6.5347774868        5.2828850050        1.1864043418
Zn               5.2283695777        7.5479524736        1.1853019359
Zn               1.3064904137        0.7540522777        3.6865311776
Zn              -0.0003830272        3.0189007950        3.6894492964
Zn              -1.3078705004        5.2829604722        3.6868963566
Zn              -2.6141795756        7.5480942279        3.6899294813
Zn               3.9209503185        0.7525854759        3.6884487579
Zn               2.6045902028        3.0014095967        3.6577588789
Zn               1.3014365386        5.2854759798        3.6778684765
Zn              -0.0025931689        7.5483539361        3.6882904056
Zn               6.5358609648        0.7554157516        3.6876547871
Zn               5.2318228723        3.0170650824        3.6843423895
Zn               3.9305667678        5.2941569272        3.6651160868
Zn               2.6134530356        7.5456132451        3.6887006452
Zn               9.1494801144        0.7565735846        3.6895373081
Zn               7.8432906355        3.0174932431        3.6888272433
Zn               6.5340662995        5.2834636051        3.6886608629
Zn               5.2293013019        7.5474662628        3.6874893870
O                3.0954552164        4.4225850587        5.6462510309
H                3.2156556328        3.4490304180        5.7320151374
H                2.8194560881        4.8013318191        6.4094008325



     Writing config-only to output data dir /home/ys/Research/PSID_server_room/qe/zinc_surface_water.relax/Zn_002_water/pwscf.save/ :
     XML data file
     NEW-OLD atomic charge density approx. for the potential

     negative rho (up, down):  3.280E-03 0.000E+00

     total cpu time spent up to now is     2660.6 secs

     Self-consistent Calculation

     iteration #  1     ecut=    50.00 Ry     beta= 0.70
     Davidson diagonalization with overlap
     ethr =  1.00E-06,  avg # of iterations = 10.0

     negative rho (up, down):  2.088E-03 0.000E+00

     total cpu time spent up to now is     3099.2 secs

     total energy              =  -29502.91193369 Ry
     estimated scf accuracy    <       0.03379881 Ry

     iteration #  2     ecut=    50.00 Ry     beta= 0.70
     Davidson diagonalization with overlap
     ethr =  2.62E-06,  avg # of iterations = 11.0

     negative rho (up, down):  2.154E-03 0.000E+00

     total cpu time spent up to now is     3311.4 secs

     total energy              =  -29502.85675261 Ry
     estimated scf accuracy    <       0.73939362 Ry

     iteration #  3     ecut=    50.00 Ry     beta= 0.70
     Davidson diagonalization with overlap
     c_bands:  1 eigenvalues not converged
     ethr =  2.62E-06,  avg # of iterations = 20.0

     negative rho (up, down):  2.205E-03 0.000E+00

     total cpu time spent up to now is     3511.7 secs

     total energy              =  -29502.89363390 Ry
     estimated scf accuracy    <       0.56385972 Ry

     iteration #  4     ecut=    50.00 Ry     beta= 0.70
     Davidson diagonalization with overlap
     ethr =  2.62E-06,  avg # of iterations = 17.0

     negative rho (up, down):  2.203E-03 0.000E+00

     total cpu time spent up to now is     3692.0 secs

     total energy              =  -29502.91585243 Ry
     estimated scf accuracy    <       0.09204259 Ry

     iteration #  5     ecut=    50.00 Ry     beta= 0.70
     Davidson diagonalization with overlap
     ethr =  2.62E-06,  avg # of iterations =  3.0

     negative rho (up, down):  2.212E-03 0.000E+00

     total cpu time spent up to now is     3848.2 secs

     total energy              =  -29502.92510735 Ry
     estimated scf accuracy    <       0.00651944 Ry

     iteration #  6     ecut=    50.00 Ry     beta= 0.70
     Davidson diagonalization with overlap
     ethr =  5.06E-07,  avg # of iterations =  3.0

     negative rho (up, down):  2.216E-03 0.000E+00

     total cpu time spent up to now is     3998.8 secs

     total energy              =  -29502.92569895 Ry
     estimated scf accuracy    <       0.00237805 Ry

     iteration #  7     ecut=    50.00 Ry     beta= 0.70
     Davidson diagonalization with overlap
     ethr =  1.85E-07,  avg # of iterations =  2.0

     negative rho (up, down):  2.216E-03 0.000E+00

     total cpu time spent up to now is     4149.2 secs

     total energy              =  -29502.92604512 Ry
     estimated scf accuracy    <       0.00026317 Ry

     iteration #  8     ecut=    50.00 Ry     beta= 0.70
     Davidson diagonalization with overlap
     ethr =  2.04E-08,  avg # of iterations =  2.0

     negative rho (up, down):  2.217E-03 0.000E+00

     total cpu time spent up to now is     4299.8 secs

     total energy              =  -29502.92606950 Ry
     estimated scf accuracy    <       0.00030668 Ry

     iteration #  9     ecut=    50.00 Ry     beta= 0.70
     Davidson diagonalization with overlap
     ethr =  2.04E-08,  avg # of iterations =  2.0

     negative rho (up, down):  2.217E-03 0.000E+00

     total cpu time spent up to now is     4447.4 secs

     total energy              =  -29502.92610171 Ry
     estimated scf accuracy    <       0.00003776 Ry

     iteration # 10     ecut=    50.00 Ry     beta= 0.70
     Davidson diagonalization with overlap
     ethr =  2.93E-09,  avg # of iterations =  2.0

     negative rho (up, down):  2.217E-03 0.000E+00

     total cpu time spent up to now is     4597.6 secs

     total energy              =  -29502.92610658 Ry
     estimated scf accuracy    <       0.00000192 Ry

     iteration # 11     ecut=    50.00 Ry     beta= 0.70
     Davidson diagonalization with overlap
     ethr =  1.49E-10,  avg # of iterations =  2.0

     negative rho (up, down):  2.217E-03 0.000E+00

     total cpu time spent up to now is     4768.2 secs

     total energy              =  -29502.92610645 Ry
     estimated scf accuracy    <       0.00000452 Ry

     iteration # 12     ecut=    50.00 Ry     beta= 0.70
     Davidson diagonalization with overlap
     ethr =  1.49E-10,  avg # of iterations =  2.0

     negative rho (up, down):  2.217E-03 0.000E+00

     total cpu time spent up to now is     4918.0 secs

     total energy              =  -29502.92610684 Ry
     estimated scf accuracy    <       0.00000225 Ry

     iteration # 13     ecut=    50.00 Ry     beta= 0.70
     Davidson diagonalization with overlap
     ethr =  1.49E-10,  avg # of iterations =  2.0

     negative rho (up, down):  2.217E-03 0.000E+00

     total cpu time spent up to now is     5068.2 secs

     total energy              =  -29502.92610682 Ry
     estimated scf accuracy    <       0.00000701 Ry

     iteration # 14     ecut=    50.00 Ry     beta= 0.70
     Davidson diagonalization with overlap
     ethr =  1.49E-10,  avg # of iterations =  2.0

     negative rho (up, down):  2.217E-03 0.000E+00

     total cpu time spent up to now is     5215.0 secs

     End of self-consistent calculation

          k = 0.0000 0.0000 0.0000 ( 47459 PWs)   bands (ev):

  -128.8544-128.8448-128.6297-128.6268-128.5996-128.5954-128.5941-128.5926
  -128.5906-128.5871-128.5835-128.5805-128.5750-128.5593-128.2371-128.2168
  -128.1944-128.1789-128.1770-128.1716-128.1708-128.1697-128.1690-128.1667
  -128.1623-128.1610-128.1589-128.1585-128.1561-128.1508-128.1492-128.1313
  -127.5040-127.5006-127.4946-127.4878-127.4862-127.4836-127.4820-127.4809
  -127.4783-127.4777-127.4771-127.4749-127.4746-127.4737-127.4702-127.4693
  -127.4670-127.4534-127.0640-127.0587-127.0544-127.0485-127.0469-127.0446
  -127.0437-127.0399-127.0361-127.0350-127.0324-127.0150-126.7706-126.7682
   -84.8819 -84.8294 -84.8267 -84.8150 -84.8126 -84.8108 -84.8040 -84.8028
   -84.7981 -84.7961 -84.7884 -84.7694 -84.7338 -84.7206 -84.7134 -84.6921
   -84.6807 -84.6523 -84.5648 -84.5509 -84.5401 -84.5396 -84.5379 -84.5314
   -84.5295 -84.5272 -84.5262 -84.5195 -84.5111 -84.4360 -84.3653 -84.3509
   -84.3301 -84.3278 -84.0918 -84.0084 -84.0078 -83.9985 -83.9933 -83.9868
   -83.9842 -83.9829 -83.9737 -83.9668 -83.9485 -83.9213 -83.5296 -83.5218
   -83.5148 -83.5103 -83.5046 -83.4912 -83.2701 -83.2571 -83.2502 -83.2469
   -83.2462 -83.2404 -83.2403 -83.2389 -83.2333 -83.2323 -83.2200 -83.2050
   -81.9443 -81.9121 -81.8621 -81.8563 -81.8473 -81.8447 -81.8409 -81.8404
   -81.8393 -81.8361 -81.8342 -81.8333 -81.8327 -81.8211 -81.8200 -81.8122
   -81.7958 -81.7927 -81.7865 -81.7844 -81.7754 -81.7718 -81.7673 -81.7636
   -81.7568 -81.7521 -81.6026 -81.5878 -81.5848 -81.5802 -81.5757 -81.5741
   -81.5712 -81.5665 -81.5661 -81.5611 -81.5602 -81.5536 -81.5523 -81.5489
   -81.5485 -81.5425 -81.5399 -81.5394 -81.5359 -81.5335 -81.5283 -81.5238
   -81.5191 -81.5167 -81.2083 -81.2047 -81.1974 -81.1964 -81.1863 -81.1801
   -81.1768 -81.1747 -81.1697 -81.1675 -81.1672 -81.1655 -81.1621 -81.1617
   -81.1596 -81.1525 -81.1512 -81.1395 -81.1125 -81.0973 -81.0968 -81.0928
   -81.0921 -81.0895 -81.0889 -81.0876 -81.0847 -81.0813 -81.0787 -81.0713
   -80.9719 -80.9649 -80.9567 -80.9478 -80.9436 -80.9390 -80.9366 -80.9345
   -80.9300 -80.9272 -80.9199 -80.9037 -80.8004 -80.7852 -80.7352 -80.7277
   -80.7180 -80.7169 -80.5764 -80.5366 -80.5360 -80.5306 -80.5271 -80.5255
   -80.5243 -80.5217 -80.5194 -80.5151 -80.5147 -80.5081 -80.3678 -80.3532
   -80.3472 -80.3441 -80.3409 -80.3379 -80.2815 -80.2536 -80.2504 -80.2499
   -80.2494 -80.2474 -80.2447 -80.2430 -80.2418 -80.2400 -80.2366 -80.2305
   -20.3891 -15.4883 -15.4838 -15.4784 -15.4774 -15.4725 -15.4605 -15.3858
   -15.3827 -15.3772 -15.3766 -15.3713 -15.3560 -14.8009 -14.7857 -14.7683
   -14.6876 -14.6734 -14.6494 -13.4382 -13.4200 -13.4036 -13.3839 -13.3717
   -13.3683 -13.3584 -13.3571 -13.3465 -13.3446 -13.3312 -13.3288 -13.3159
   -13.2511 -13.2450 -13.2400 -13.2388 -13.2308 -13.1924 -13.0803 -12.7249
   -12.6931 -12.6887 -12.6846 -12.6814 -12.6783 -12.5825 -12.5436 -12.5349
   -12.5342 -12.5232 -12.5138 -12.5041 -12.4954 -12.4923 -12.4910 -12.4833
   -12.4575 -12.1774 -12.1563 -12.1498 -12.1458 -12.1392 -12.1306 -12.0950
   -12.0902 -12.0847 -12.0816 -12.0671 -12.0592 -12.0553 -12.0526 -12.0505
   -12.0454 -12.0410 -12.0318 -12.0291 -12.0215 -12.0082 -11.9084 -11.9023
   -11.8917 -11.8901 -11.8831 -11.8798 -11.7950 -11.7890 -11.7825 -11.7808
   -11.7750 -11.7675 -11.7232 -11.7159 -11.7002 -11.6941 -11.6892 -11.6785
   -11.6754 -11.6706 -11.6502 -11.6171 -11.6106 -11.6069 -11.3688 -11.3629
   -11.3500 -11.3429 -11.3377 -11.3348 -11.3217 -11.3180 -11.3143 -11.3116
   -11.3069 -11.3038 -11.2910 -11.2250 -11.2114 -11.2104 -11.2004 -11.1914
   -11.1864 -11.1848 -11.1802 -11.1262 -11.1186 -11.1120 -11.1049 -11.0981
   -11.0900 -10.9288 -10.9068 -10.8849 -10.8808 -10.8721 -10.8681 -10.8395
   -10.8343 -10.8283 -10.8239 -10.8084 -10.8052 -10.7879 -10.7772 -10.6458
   -10.6322 -10.6220 -10.4862 -10.4827 -10.4758 -10.4750 -10.4725 -10.4684
   -10.1667 -10.1661 -10.1578 -10.1535 -10.1321 -10.1277 -10.1057 -10.0894
   -10.0829 -10.0202 -10.0095 -10.0019  -9.9991  -9.9959  -9.9909  -9.9850
    -9.9843  -9.9803  -9.9737  -9.9723  -9.1474  -9.0419  -9.0361  -9.0278
    -9.0166  -9.0101  -8.9906  -8.3119  -8.3044  -8.2978  -8.2172  -8.1982
    -8.1946  -8.1845  -8.1803  -8.1345  -7.8699  -7.8627  -7.8611  -7.8560
    -7.8520  -7.8423  -7.7744  -7.7578  -7.7543  -7.7514  -7.7466  -7.7389
    -7.7133  -7.6793  -7.6693  -7.6561  -7.6520  -7.6300  -7.6021  -7.5963
    -7.5917  -7.5726  -7.5642  -7.5514  -7.4762  -7.4224  -7.3949  -7.3751
    -7.3741  -7.3657  -7.3285  -7.2970  -7.2837  -7.2703  -7.2691  -7.2617
    -7.2245  -7.2139  -7.2008  -7.2001  -7.1927  -7.1909  -7.1524  -7.1101
    -7.1038  -7.0955  -7.0521  -7.0133  -7.0038  -6.9984  -6.9966  -6.9855
    -6.9602  -6.9529  -6.9421  -6.9394  -6.9352  -6.9239  -6.9213  -6.9118
    -6.9064  -6.8997  -6.8942  -6.8805  -6.7713  -6.7507  -6.7079  -6.5205
    -6.5154  -6.5084  -6.5068  -6.5041  -6.4962  -6.3381  -6.3177  -6.1853
    -6.1658  -6.0558  -6.0401  -6.0236  -6.0120  -6.0077  -6.0029  -5.9139
    -5.8225  -5.7890  -5.7802  -5.7764  -5.7748  -5.7739  -5.7683  -5.7345
    -5.7066  -5.7027  -5.7017  -5.6918  -5.6889  -5.6800  -5.6753  -5.6734
    -5.6669  -5.6365  -5.4228  -5.3529  -5.3447  -5.3408  -5.3355  -5.3326
    -5.3290  -5.3206  -5.3190  -5.3167  -5.3131  -5.3101  -5.3043  -5.2984
    -5.2723  -5.2686  -5.2624  -5.2589  -5.2557  -5.2529  -5.2486  -5.2218
    -5.1517  -5.1266  -5.1164  -5.1143  -5.1111  -5.1069  -5.0986  -5.0823
    -5.0771  -5.0716  -5.0676  -5.0621  -5.0607  -5.0597  -5.0567  -5.0518
    -5.0482  -5.0388  -4.3885  -4.1106  -4.0980  -3.9019  -3.8393  -3.8331
    -3.8207  -3.8196  -3.8109  -3.8011  -3.6424  -3.6400  -3.6249  -3.6242
    -3.6172  -3.6143  -3.3406  -2.8708  -2.6011  -2.5938  -2.5881  -2.5364
    -2.2462  -1.9795  -1.3847  -1.3680  -1.1839  -0.7855  -0.7686  -0.7642
    -0.4083  -0.4040  -0.3960  -0.3866  -0.2771   0.1240   1.5110   1.5550
     1.6167   2.5584   2.5806   2.5860   2.5871   2.5923   2.6037   2.7564
     2.8367   2.8400   2.8456   2.8513   2.8516   2.8599   3.9154   3.9374
     3.9614   4.0138   4.0397   4.1202   4.6290   4.6811   4.7182   4.8061
     4.8588   4.8723   4.8860   4.9215   5.0169   5.1567   5.1624   5.1685
     5.2092   5.2273   5.3224   5.8373   5.8526   5.8671   5.8785   5.8806
     5.9266   6.1190   6.8002   6.9571   7.0182   7.0226   7.1775   7.1843
     7.1850   7.1965   7.2072   7.2160   7.2436   7.6141   7.6639   7.8742
     8.0131   8.1569   8.2101   8.2431   8.2704   8.5739   8.6101   8.6187
     8.6509   8.6930   8.7080   8.7383   8.7464   8.7526   8.7631   8.8247
     8.8443   8.8657   8.8669   8.8809   8.9277   9.0345   9.0720   9.1250
     9.2113   9.3080   9.4656   9.5556   9.6227   9.6561   9.6964   9.7058
     9.7248   9.8119  10.0501  10.0743  10.1113  10.1166  10.1282  10.1326
    10.2745  10.2939  10.3376  10.3475  10.3645  10.4213  10.4385  10.4960
    10.5679  10.5886  10.6189  10.6344  10.6456  10.7035  10.7387  10.8062
    10.8117  10.9183  11.0988  11.1567  11.1674  11.2173  11.3200  11.4033
    11.4274  11.4873  11.4952  11.4984  11.5176  11.5291  11.5419  11.6208
    11.6375  11.7113  11.7198  11.7289  11.7328  11.7379  11.7406  11.7461
    11.7791  11.7987  11.8130  11.8516  11.8748  11.9380  11.9421  11.9756
    11.9806  11.9989  12.0249  12.1856  12.3861

     the Fermi energy is     4.3728 ev

!    total energy              =  -29502.92610662 Ry
     estimated scf accuracy    <       0.00000062 Ry
     smearing contrib. (-TS)   =      -0.00040499 Ry
     internal energy E=F+TS    =  -29502.92570163 Ry

     The total energy is F=E-TS. E is the sum of the following terms:
     one-electron contribution = -343013.81413426 Ry
     hartree contribution      =  171325.15816880 Ry
     xc contribution           =   -2766.13697871 Ry
     ewald contribution        =  144961.37732152 Ry
     one-center paw contrib.   =      -9.51007897 Ry

     convergence has been achieved in  14 iterations

     negative rho (up, down):  2.217E-03 0.000E+00

     Forces acting on atoms (cartesian axes, Ry/au):

     atom    1 type  1   force =    -0.01392291    0.01942467   -0.04395691
     atom    2 type  1   force =     0.00974511   -0.01310547   -0.04799580
     atom    3 type  1   force =    -0.03090283    0.01416240   -0.04669707
     atom    4 type  1   force =    -0.00710708   -0.01584837   -0.04728422
     atom    5 type  1   force =     0.00255036    0.00701725   -0.03101763
     atom    6 type  1   force =    -0.02098182    0.00156895   -0.05045797
     atom    7 type  1   force =    -0.00274432    0.00428242   -0.03619701
     atom    8 type  1   force =    -0.03112356   -0.00681375   -0.03203148
     atom    9 type  1   force =    -0.01153773    0.02199990   -0.04812126
     atom   10 type  1   force =    -0.00910788    0.01164302   -0.07185587
     atom   11 type  1   force =    -0.00146837    0.01533101   -0.04775967
     atom   12 type  1   force =     0.00087777   -0.02321647   -0.05339784
     atom   13 type  1   force =    -0.01434531    0.00681173   -0.03756766
     atom   14 type  1   force =     0.00025210   -0.00506733   -0.04286599
     atom   15 type  1   force =    -0.00065405    0.01632284   -0.02848981
     atom   16 type  1   force =    -0.02452283   -0.00962385   -0.05070914
     atom   17 type  1   force =     0.00284835    0.01273204    0.04516193
     atom   18 type  1   force =    -0.00959553    0.00572308    0.03744473
     atom   19 type  1   force =    -0.01693856   -0.00582603    0.04316882
     atom   20 type  1   force =    -0.00868637   -0.00143708    0.04101435
     atom   21 type  1   force =     0.01392524   -0.12593289    0.09273795
     atom   22 type  1   force =     0.08253263    0.04979040    0.02855714
     atom   23 type  1   force =    -0.04203007    0.03656335    0.06210275
     atom   24 type  1   force =    -0.00847319    0.00339850    0.04689330
     atom   25 type  1   force =    -0.03058850   -0.01052329    0.04366455
     atom   26 type  1   force =    -0.25292352    0.09897530   -0.10680781
     atom   27 type  1   force =     0.02779571   -0.14582657   -0.00732218
     atom   28 type  1   force =    -0.00694075   -0.01150437    0.03360924
     atom   29 type  1   force =    -0.02247034   -0.00193868    0.05054007
     atom   30 type  1   force =     0.02277866    0.01634016    0.04542476
     atom   31 type  1   force =     0.04930731    0.04258260    0.05462484
     atom   32 type  1   force =    -0.02651980   -0.00735235    0.03678658
     atom   33 type  1   force =     0.01485381    0.00943025   -0.05327647
     atom   34 type  1   force =     0.00143229   -0.00631310   -0.03241520
     atom   35 type  1   force =     0.03010676    0.00743108   -0.04851139
     atom   36 type  1   force =     0.00865990   -0.00619893   -0.03536516
     atom   37 type  1   force =    -0.00493082    0.01656256   -0.04856574
     atom   38 type  1   force =     0.01254979   -0.01858284   -0.04855623
     atom   39 type  1   force =    -0.01409284    0.00142959   -0.04324612
     atom   40 type  1   force =     0.02213126   -0.02618558   -0.04350473
     atom   41 type  1   force =     0.02271728    0.02112072   -0.04304654
     atom   42 type  1   force =     0.00996676   -0.01974752   -0.02882131
     atom   43 type  1   force =     0.00416341   -0.01315229   -0.07165734
     atom   44 type  1   force =     0.00951176   -0.00010809   -0.03207712
     atom   45 type  1   force =     0.00496311    0.00957851   -0.03150639
     atom   46 type  1   force =    -0.00489315   -0.01201084   -0.04391233
     atom   47 type  1   force =     0.01755311    0.00825691   -0.03792870
     atom   48 type  1   force =     0.01903347   -0.01643086   -0.04189977
     atom   49 type  1   force =     0.00307850    0.00140088    0.03126946
     atom   50 type  1   force =    -0.03775776   -0.04199650    0.06398990
     atom   51 type  1   force =     0.00292584   -0.00435786    0.03498823
     atom   52 type  1   force =     0.00095599   -0.00775765    0.05183055
     atom   53 type  1   force =     0.01426557    0.01509722    0.04222747
     atom   54 type  1   force =     0.09917962    0.22063862   -0.04902915
     atom   55 type  1   force =     0.07351038   -0.04091850    0.02456081
     atom   56 type  1   force =     0.02497497   -0.01358764    0.04361138
     atom   57 type  1   force =     0.02104463    0.00203850    0.04134127
     atom   58 type  1   force =     0.10435533   -0.07470250    0.08190571
     atom   59 type  1   force =    -0.14280148   -0.11509230    0.00481186
     atom   60 type  1   force =     0.02593686    0.10794896    0.07218723
     atom   61 type  1   force =     0.00564780   -0.01011590    0.04936539
     atom   62 type  1   force =    -0.00406669    0.01006919    0.04532861
     atom   63 type  1   force =     0.03649622   -0.01593571    0.04977923
     atom   64 type  1   force =     0.00287279    0.00622126    0.04542909
     atom   65 type  2   force =     0.05853633   -0.07443868   -0.00235975
     atom   66 type  3   force =    -0.00412246   -0.00076148    0.03741489
     atom   67 type  3   force =    -0.05778622    0.08051739    0.18444265

     Total force =     0.695656     Total SCF correction =     0.012752
     Energy error            =      2.2E-01 Ry
     Gradient error          =      2.5E-01 Ry/Bohr

     number of scf cycles    =   2
     number of bfgs steps    =   1

     energy             old  =  -29502.7062448362 Ry
     energy             new  =  -29502.9261066218 Ry

     CASE: energy            _new < energy            _old

     new trust radius        =       0.2266456307 bohr
     new conv_thr            =       0.0000010000 Ry


ATOMIC_POSITIONS (angstrom)
Zn               0.0003881853        1.5093688617        1.1405915559
Zn              -1.3069371052        3.7743266527        1.1373316202
Zn              -2.6159333797        6.0385924643        1.1383249403
Zn              -3.9221850364        8.3017674894        1.1375638975
Zn               2.6138682361        1.5096205693        1.1454844489
Zn               1.3072319878        3.7733901104        1.1364848951
Zn              -0.0013035640        6.0382302598        1.1428619940
Zn              -1.3102773626        8.3011519425        1.1461755251
Zn               5.2289375316        1.5103370071        1.1371365865
Zn               3.9201330406        3.7756329049        1.1232886355
Zn               2.6161250117        6.0377818815        1.1356885187
Zn               1.3063600362        8.3012773260        1.1335527841
Zn               7.8408217007        1.5090690881        1.1435869622
Zn               6.5351046218        3.7723316520        1.1413014357
Zn               5.2265701659        6.0389585233        1.1469449297
Zn               3.9200305140        8.3005911671        1.1365563349
Zn              -0.0000241360        1.5092965329        3.7354859448
Zn              -1.3080167961        3.7735553573        3.7306702333
Zn              -2.6163520058        6.0395640220        3.7340202559
Zn              -3.9200830888        8.3010197898        3.7321950600
Zn               2.6166244723        1.4828449229        3.7463250491
Zn               1.3075232558        3.7805847785        3.7055676021
Zn              -0.0080865327        6.0438497578        3.7391443441
Zn              -1.3101862491        8.3004825440        3.7362695361
Zn               5.2262711106        1.5058032685        3.7319018978
Zn               3.9114745138        3.7728321438        3.6114058678
Zn               2.6083554768        6.0326966596        3.6862386564
Zn               1.3053937342        8.3021172303        3.7277602031
Zn               7.8419212395        1.5083972618        3.7383824352
Zn               6.5391166374        3.7756452625        3.7334969689
Zn               5.2458366825        6.0495525094        3.7284498999
Zn               3.9208544659        8.3040239131        3.7302247872
Zn               1.3085694886        0.7543278718        1.1347927875
Zn              -0.0006400439        3.0188040347        1.1457380342
Zn              -1.3059898971        5.2826197322        1.1364924149
Zn              -2.6143574316        7.5471304196        1.1444951430
Zn               3.9216578701        0.7552524684        1.1376007070
Zn               2.6169739247        3.0178181632        1.1362088869
Zn               1.3076586058        5.2828768280        1.1393676334
Zn               0.0016734526        7.5473668771        1.1395366238
Zn               6.5374010210        0.7557553299        1.1387499256
Zn               5.2273900995        3.0164658786        1.1461979995
Zn               3.9213514013        5.2805623183        1.1226366810
Zn               2.6134859398        7.5468775340        1.1439173628
Zn               9.1510195670        0.7551978138        1.1468304536
Zn               7.8433684763        3.0183721412        1.1396768574
Zn               6.5369746637        5.2845482357        1.1437379468
Zn               5.2317053448        7.5458168354        1.1406352660
Zn               1.3062855135        0.7536495217        3.7276385092
Zn              -0.0083173410        3.0107638463        3.7402360357
Zn              -1.3081175810        5.2822164866        3.7291407709
Zn              -2.6138601808        7.5478273006        3.7388454429
Zn               3.9230752895        0.7532684074        3.7338351445
Zn               2.6133454561        3.0258255277        3.6512687721
Zn               1.3095607600        5.2802893444        3.7080938030
Zn              -0.0005808824        7.5472225564        3.7337753011
Zn               6.5399428561        0.7566431980        3.7319902284
Zn               5.2558133736        3.0004457934        3.7330317265
Zn               3.9122925003        5.2839041618        3.6773727719
Zn               2.6175266443        7.5654524985        3.7402797626
Zn               9.1497159318        0.7566788760        3.7375338985
Zn               7.8426958873        3.0180824449        3.7352434571
Zn               6.5392186788        5.2809889619        3.7357721756
Zn               5.2304745088        7.5492662966        3.7324493822
O                3.1033909981        4.4160777050        5.7657468489
H                3.2181357982        3.4275979126        5.7577729712
H                2.8042799423        4.8334198238        6.4670274683



     Writing config-only to output data dir /home/ys/Research/PSID_server_room/qe/zinc_surface_water.relax/Zn_002_water/pwscf.save/ :
     XML data file
     NEW-OLD atomic charge density approx. for the potential

     negative rho (up, down):  4.356E-03 0.000E+00

     total cpu time spent up to now is     5289.6 secs

     Self-consistent Calculation

     iteration #  1     ecut=    50.00 Ry     beta= 0.70
     Davidson diagonalization with overlap
     ethr =  1.00E-06,  avg # of iterations = 12.0

     negative rho (up, down):  1.877E-03 0.000E+00

     total cpu time spent up to now is     5743.8 secs

     total energy              =  -29503.11919590 Ry
     estimated scf accuracy    <       0.03960045 Ry

     iteration #  2     ecut=    50.00 Ry     beta= 0.70
     Davidson diagonalization with overlap
     ethr =  3.07E-06,  avg # of iterations =  9.0

     negative rho (up, down):  1.942E-03 0.000E+00

     total cpu time spent up to now is     5942.5 secs

     total energy              =  -29503.08003153 Ry
     estimated scf accuracy    <       0.33913776 Ry

     iteration #  3     ecut=    50.00 Ry     beta= 0.70
     Davidson diagonalization with overlap
     ethr =  3.07E-06,  avg # of iterations = 12.0

     negative rho (up, down):  2.083E-03 0.000E+00

     total cpu time spent up to now is     6131.0 secs

     total energy              =  -29503.07929552 Ry
     estimated scf accuracy    <       0.99678494 Ry

     iteration #  4     ecut=    50.00 Ry     beta= 0.70
     Davidson diagonalization with overlap
     ethr =  3.07E-06,  avg # of iterations = 11.0

     negative rho (up, down):  2.089E-03 0.000E+00

     total cpu time spent up to now is     6308.5 secs

     total energy              =  -29503.11325917 Ry
     estimated scf accuracy    <       0.21496647 Ry

     iteration #  5     ecut=    50.00 Ry     beta= 0.70
     Davidson diagonalization with overlap
     ethr =  3.07E-06,  avg # of iterations =  6.0

     negative rho (up, down):  2.088E-03 0.000E+00

     total cpu time spent up to now is     6470.9 secs

     total energy              =  -29503.12918359 Ry
     estimated scf accuracy    <       0.00999849 Ry

     iteration #  6     ecut=    50.00 Ry     beta= 0.70
     Davidson diagonalization with overlap
     ethr =  7.76E-07,  avg # of iterations =  3.0

     negative rho (up, down):  2.090E-03 0.000E+00

     total cpu time spent up to now is     6624.0 secs

     total energy              =  -29503.13032646 Ry
     estimated scf accuracy    <       0.00191447 Ry

     iteration #  7     ecut=    50.00 Ry     beta= 0.70
     Davidson diagonalization with overlap
     ethr =  1.49E-07,  avg # of iterations =  2.0

     negative rho (up, down):  2.091E-03 0.000E+00

     total cpu time spent up to now is     6773.5 secs

     total energy              =  -29503.13059935 Ry
     estimated scf accuracy    <       0.00075545 Ry

     iteration #  8     ecut=    50.00 Ry     beta= 0.70
     Davidson diagonalization with overlap
     ethr =  5.87E-08,  avg # of iterations =  2.0

     negative rho (up, down):  2.091E-03 0.000E+00

     total cpu time spent up to now is     6922.4 secs

     total energy              =  -29503.13068104 Ry
     estimated scf accuracy    <       0.00025546 Ry

     iteration #  9     ecut=    50.00 Ry     beta= 0.70
     Davidson diagonalization with overlap
     ethr =  1.98E-08,  avg # of iterations =  2.0

     negative rho (up, down):  2.092E-03 0.000E+00

     total cpu time spent up to now is     7071.1 secs

     total energy              =  -29503.13070728 Ry
     estimated scf accuracy    <       0.00009358 Ry

     iteration # 10     ecut=    50.00 Ry     beta= 0.70
     Davidson diagonalization with overlap
     ethr =  7.27E-09,  avg # of iterations =  2.0

     negative rho (up, down):  2.092E-03 0.000E+00

     total cpu time spent up to now is     7220.7 secs

     total energy              =  -29503.13071850 Ry
     estimated scf accuracy    <       0.00000246 Ry

     iteration # 11     ecut=    50.00 Ry     beta= 0.70
     Davidson diagonalization with overlap
     ethr =  1.91E-10,  avg # of iterations =  2.0

     negative rho (up, down):  2.092E-03 0.000E+00

     total cpu time spent up to now is     7393.8 secs

     total energy              =  -29503.13071838 Ry
     estimated scf accuracy    <       0.00000374 Ry

     iteration # 12     ecut=    50.00 Ry     beta= 0.70
     Davidson diagonalization with overlap
     ethr =  1.91E-10,  avg # of iterations =  2.0

     negative rho (up, down):  2.092E-03 0.000E+00

     total cpu time spent up to now is     7542.9 secs

     total energy              =  -29503.13071885 Ry
     estimated scf accuracy    <       0.00000307 Ry

     iteration # 13     ecut=    50.00 Ry     beta= 0.70
     Davidson diagonalization with overlap
     ethr =  1.91E-10,  avg # of iterations =  2.0

     negative rho (up, down):  2.092E-03 0.000E+00

     total cpu time spent up to now is     7690.7 secs

     total energy              =  -29503.13071893 Ry
     estimated scf accuracy    <       0.00000354 Ry

     iteration # 14     ecut=    50.00 Ry     beta= 0.70
     Davidson diagonalization with overlap
     ethr =  1.91E-10,  avg # of iterations =  2.0

     negative rho (up, down):  2.092E-03 0.000E+00

     total cpu time spent up to now is     7839.1 secs

     total energy              =  -29503.13071908 Ry
     estimated scf accuracy    <       0.00000151 Ry

     iteration # 15     ecut=    50.00 Ry     beta= 0.70
     Davidson diagonalization with overlap
     ethr =  1.17E-10,  avg # of iterations =  1.0

     negative rho (up, down):  2.092E-03 0.000E+00

     total cpu time spent up to now is     7965.4 secs

     End of self-consistent calculation

          k = 0.0000 0.0000 0.0000 ( 47459 PWs)   bands (ev):

  -128.7781-128.7760-128.5471-128.5405-128.5368-128.5339-128.5218-128.5202
  -128.5195-128.5151-128.5105-128.5075-128.5064-128.4733-128.1314-128.1225
  -128.1201-128.1132-128.1127-128.1109-128.1094-128.1055-128.0995-128.0983
  -128.0970-128.0961-128.0895-128.0818-128.0780-128.0764-128.0644-128.0476
  -127.4381-127.4250-127.4229-127.4224-127.4182-127.4169-127.4140-127.4117
  -127.4104-127.4097-127.4059-127.4014-127.3956-127.3950-127.3884-127.3834
  -127.3792-127.3550-126.9932-126.9820-126.9794-126.9744-126.9722-126.9711
  -126.9705-126.9677-126.9623-126.9597-126.9526-126.9469-126.6986-126.6943
   -84.8109 -84.7936 -84.7755 -84.7486 -84.7478 -84.7449 -84.7332 -84.7298
   -84.7274 -84.7191 -84.7158 -84.6617 -84.6439 -84.6397 -84.6348 -84.6238
   -84.6105 -84.6040 -84.5745 -84.5115 -84.4803 -84.4660 -84.4577 -84.4553
   -84.4518 -84.4433 -84.4408 -84.4322 -84.3777 -84.3483 -84.2835 -84.2566
   -84.2518 -84.2016 -83.9622 -83.9583 -83.9379 -83.9307 -83.9229 -83.9206
   -83.9106 -83.9074 -83.9021 -83.8917 -83.8883 -83.7832 -83.4539 -83.4527
   -83.4444 -83.4344 -83.4277 -83.4222 -83.2128 -83.1998 -83.1849 -83.1827
   -83.1772 -83.1696 -83.1642 -83.1618 -83.1583 -83.1354 -83.1255 -83.0712
   -81.8601 -81.8420 -81.7937 -81.7837 -81.7777 -81.7746 -81.7729 -81.7727
   -81.7663 -81.7628 -81.7586 -81.7487 -81.7474 -81.7424 -81.7314 -81.7270
   -81.7209 -81.7150 -81.7099 -81.7021 -81.7013 -81.6986 -81.6932 -81.6913
   -81.6891 -81.6756 -81.5243 -81.5108 -81.5066 -81.5035 -81.5020 -81.5002
   -81.4970 -81.4935 -81.4906 -81.4848 -81.4821 -81.4804 -81.4787 -81.4771
   -81.4746 -81.4713 -81.4676 -81.4662 -81.4618 -81.4521 -81.4499 -81.4459
   -81.4426 -81.4286 -81.1240 -81.1171 -81.1149 -81.1137 -81.1115 -81.1078
   -81.1063 -81.1055 -81.1036 -81.0979 -81.0955 -81.0929 -81.0889 -81.0881
   -81.0804 -81.0764 -81.0698 -81.0681 -81.0513 -81.0310 -81.0296 -81.0248
   -81.0192 -81.0135 -81.0104 -81.0093 -81.0041 -80.9992 -80.9882 -80.9798
   -80.8893 -80.8780 -80.8765 -80.8686 -80.8674 -80.8652 -80.8610 -80.8607
   -80.8562 -80.8522 -80.8474 -80.8424 -80.7239 -80.7140 -80.6610 -80.6593
   -80.6447 -80.6362 -80.4886 -80.4822 -80.4706 -80.4636 -80.4613 -80.4579
   -80.4561 -80.4508 -80.4495 -80.4413 -80.4294 -80.3986 -80.2805 -80.2776
   -80.2743 -80.2725 -80.2700 -80.2650 -80.2232 -80.1874 -80.1865 -80.1819
   -80.1813 -80.1768 -80.1764 -80.1708 -80.1624 -80.1560 -80.1463 -80.1330
   -20.0551 -15.3992 -15.3944 -15.3887 -15.3843 -15.3727 -15.3557 -15.3220
   -15.3159 -15.3118 -15.3067 -15.2913 -15.2606 -14.7023 -14.6865 -14.6679
   -14.6122 -14.5987 -14.5806 -13.3547 -13.3304 -13.3183 -13.3138 -13.3026
   -13.2936 -13.2883 -13.2777 -13.2456 -13.2381 -13.2322 -13.2230 -13.2018
   -13.1944 -13.1830 -13.1649 -13.1584 -13.1312 -13.1176 -13.0098 -12.5700
   -12.5607 -12.5497 -12.5385 -12.5348 -12.5019 -12.4843 -12.4687 -12.4519
   -12.4498 -12.4447 -12.4363 -12.4310 -12.4224 -12.4182 -12.4025 -12.3979
   -12.3796 -12.1389 -12.1290 -12.1130 -12.1105 -12.1008 -12.0530 -12.0366
   -12.0195 -12.0053 -11.9935 -11.9906 -11.9793 -11.9690 -11.9686 -11.9663
   -11.9529 -11.9524 -11.9490 -11.9427 -11.8915 -11.8687 -11.8056 -11.7975
   -11.7962 -11.7917 -11.7884 -11.7793 -11.7239 -11.7168 -11.7153 -11.7108
   -11.7050 -11.6890 -11.6729 -11.6613 -11.6527 -11.6236 -11.5705 -11.5561
   -11.5405 -11.5216 -11.5063 -11.4548 -11.4390 -11.4291 -11.3298 -11.3136
   -11.2886 -11.2809 -11.2580 -11.2441 -11.2000 -11.1815 -11.1733 -11.1700
   -11.1600 -11.1492 -11.1393 -11.1170 -11.1082 -11.0938 -11.0890 -11.0811
   -11.0780 -11.0694 -11.0596 -11.0486 -11.0374 -11.0143 -11.0070 -10.9801
   -10.9636 -10.8745 -10.8476 -10.8420 -10.8377 -10.8310 -10.8122 -10.8082
   -10.7985 -10.7823 -10.7737 -10.7236 -10.6968 -10.6791 -10.6641 -10.5808
   -10.5621 -10.5432 -10.3587 -10.3501 -10.3373 -10.3175 -10.3097 -10.2875
   -10.0792 -10.0761 -10.0745 -10.0725 -10.0574 -10.0511 -10.0207 -10.0184
    -9.9734  -9.9722  -9.9493  -9.9284  -9.9212  -9.9004  -9.7629  -9.6312
    -9.6270  -9.6041  -9.5934  -9.5864  -9.1066  -8.8086  -8.8083  -8.8047
    -8.7960  -8.7803  -8.7747  -8.1588  -8.1484  -8.1409  -8.1319  -8.1269
    -8.1129  -8.0893  -8.0873  -8.0793  -7.7826  -7.7682  -7.7639  -7.7597
    -7.7518  -7.7480  -7.7041  -7.6946  -7.6863  -7.6828  -7.6781  -7.6636
    -7.5832  -7.5616  -7.5390  -7.5344  -7.5156  -7.5100  -7.5019  -7.4943
    -7.4873  -7.4786  -7.4582  -7.4347  -7.4259  -7.3589  -7.3014  -7.2950
    -7.2901  -7.2817  -7.2638  -7.2296  -7.2201  -7.2166  -7.2085  -7.1991
    -7.1574  -7.0744  -7.0632  -7.0600  -7.0528  -7.0451  -7.0359  -7.0312
    -7.0277  -7.0080  -6.9635  -6.9445  -6.9311  -6.9178  -6.9144  -6.9045
    -6.8989  -6.8955  -6.8916  -6.8800  -6.8740  -6.8697  -6.8552  -6.8529
    -6.8465  -6.8320  -6.8253  -6.8003  -6.5898  -6.5795  -6.5678  -6.4875
    -6.4828  -6.4802  -6.4740  -6.4630  -6.4444  -6.2409  -6.2149  -6.1253
    -6.0991  -5.9034  -5.8823  -5.8655  -5.8628  -5.8561  -5.8489  -5.8352
    -5.8162  -5.8105  -5.8030  -5.7997  -5.7225  -5.7214  -5.7051  -5.6974
    -5.6919  -5.6814  -5.6644  -5.6406  -5.6330  -5.6246  -5.6244  -5.6156
    -5.6028  -5.5634  -5.3324  -5.3248  -5.3206  -5.3183  -5.3148  -5.3095
    -5.2765  -5.2514  -5.2435  -5.2372  -5.2326  -5.2277  -5.2181  -5.2007
    -5.1948  -5.1857  -5.1808  -5.1136  -5.0940  -5.0879  -5.0834  -5.0788
    -5.0758  -5.0428  -5.0371  -5.0327  -5.0288  -5.0258  -5.0176  -5.0095
    -5.0049  -5.0032  -4.9997  -4.9938  -4.9855  -4.9818  -4.9809  -4.9729
    -4.9700  -4.9339  -4.0639  -3.8537  -3.8468  -3.7458  -3.7383  -3.7329
    -3.7275  -3.7164  -3.7126  -3.6923  -3.5763  -3.5743  -3.5672  -3.5640
    -3.5533  -3.5519  -3.2263  -2.8162  -2.6642  -2.6551  -2.6415  -2.6300
    -2.2837  -1.8722  -1.4472  -1.4261  -1.2525  -0.6123  -0.5974  -0.5930
    -0.3626  -0.3569  -0.3500  -0.3355  -0.2073   0.1224   1.5005   1.5163
     1.5735   2.2619   2.7775   2.7930   2.8118   2.8181   2.8363   2.9080
     3.0966   3.0984   3.1026   3.1035   3.1116   3.1253   3.9805   4.0036
     4.0146   4.0420   4.0502   4.1269   4.5245   4.5582   4.5624   4.5805
     4.6167   4.6898   4.7190   4.7516   4.9189   5.1311   5.1444   5.1560
     5.1756   5.1888   5.2795   5.7836   5.7963   5.8037   5.8059   5.8386
     5.8962   6.1137   6.7650   6.9539   7.0173   7.0392   7.1939   7.3618
     7.4129   7.4146   7.4209   7.4405   7.4598   7.6909   7.7454   7.8864
     8.0676   8.1528   8.2205   8.2518   8.2715   8.5681   8.6469   8.6596
     8.6728   8.7055   8.7083   8.7208   8.7792   8.8110   8.8299   8.8352
     8.8523   8.8682   8.8701   8.8746   8.8789   8.8895   8.8971   8.9202
     8.9733   9.0862   9.4163   9.5553   9.6119   9.6386   9.6782   9.6834
     9.6980   9.7787  10.0546  10.0833  10.1102  10.1147  10.1277  10.1338
    10.2011  10.2281  10.2408  10.2742  10.2864  10.2907  10.3150  10.3490
    10.3770  10.4985  10.5762  10.6380  10.6659  10.6664  10.6740  10.7029
    10.7556  10.8441  11.0543  11.1060  11.1181  11.1788  11.2934  11.4092
    11.4335  11.4638  11.4685  11.4817  11.5034  11.5303  11.5670  11.6334
    11.6588  11.7365  11.7798  11.7992  11.8126  11.8433  11.8662  11.9247
    11.9376  11.9666  11.9801  11.9950  11.9982  12.0043  12.0140  12.0192
    12.0251  12.0494  12.0569  12.1908  12.3424

     the Fermi energy is     4.3167 ev

!    total energy              =  -29503.13071912 Ry
     estimated scf accuracy    <       0.00000006 Ry
     smearing contrib. (-TS)   =      -0.00228850 Ry
     internal energy E=F+TS    =  -29503.12843062 Ry

     The total energy is F=E-TS. E is the sum of the following terms:
     one-electron contribution = -339022.25123120 Ry
     hartree contribution      =  169332.95407151 Ry
     xc contribution           =   -2765.41564926 Ry
     ewald contribution        =  142961.08782851 Ry
     one-center paw contrib.   =      -9.50345017 Ry

     convergence has been achieved in  15 iterations

     negative rho (up, down):  2.092E-03 0.000E+00

     Forces acting on atoms (cartesian axes, Ry/au):

     atom    1 type  1   force =     0.01597729   -0.00401758   -0.02628400
     atom    2 type  1   force =    -0.00905982   -0.00317809   -0.03500522
     atom    3 type  1   force =     0.03803523   -0.01266953   -0.03396063
     atom    4 type  1   force =     0.01348430    0.01187345   -0.03203141
     atom    5 type  1   force =     0.00246434   -0.00392335    0.01591506
     atom    6 type  1   force =     0.01346603   -0.01326937   -0.04113773
     atom    7 type  1   force =     0.01697064   -0.00247575   -0.00248122
     atom    8 type  1   force =     0.04172817    0.00672038    0.00368598
     atom    9 type  1   force =     0.00728736   -0.03261384   -0.03500136
     atom   10 type  1   force =     0.02756151   -0.02478309   -0.08977042
     atom   11 type  1   force =    -0.00312724   -0.00351577   -0.02906099
     atom   12 type  1   force =     0.01053362    0.02474070   -0.04897390
     atom   13 type  1   force =     0.03349883    0.00434338   -0.01164085
     atom   14 type  1   force =    -0.00745833    0.01637404   -0.02522262
     atom   15 type  1   force =     0.00040023   -0.03103954    0.02015018
     atom   16 type  1   force =     0.03049568   -0.00136865   -0.04601364
     atom   17 type  1   force =     0.01324493   -0.05699794    0.02408025
     atom   18 type  1   force =    -0.00688459    0.01368963    0.00526004
     atom   19 type  1   force =     0.02808183    0.00565145    0.01987298
     atom   20 type  1   force =     0.00812048    0.00523771    0.01743032
     atom   21 type  1   force =    -0.01685628    0.29708969    0.16179541
     atom   22 type  1   force =    -0.11485546   -0.12252802    0.02985849
     atom   23 type  1   force =     0.09069386   -0.07302581    0.07663522
     atom   24 type  1   force =     0.02772549    0.00386730    0.02860780
     atom   25 type  1   force =     0.00668543   -0.11224241    0.01662610
     atom   26 type  1   force =     0.36487834   -0.10520922   -0.26739841
     atom   27 type  1   force =    -0.00302017    0.23960624   -0.07174385
     atom   28 type  1   force =    -0.04282602    0.01494051   -0.00871933
     atom   29 type  1   force =     0.03138319    0.02497381    0.03580751
     atom   30 type  1   force =     0.03481477    0.05052255    0.01772374
     atom   31 type  1   force =    -0.17492052   -0.14087387    0.05734571
     atom   32 type  1   force =     0.09650487    0.01987892   -0.00360286
     atom   33 type  1   force =    -0.01410874    0.00043554   -0.04662741
     atom   34 type  1   force =     0.00511202    0.00122940    0.00957617
     atom   35 type  1   force =    -0.03089991    0.00875852   -0.03447003
     atom   36 type  1   force =    -0.02260780   -0.00342952   -0.00389731
     atom   37 type  1   force =     0.00743629   -0.00758373   -0.03830909
     atom   38 type  1   force =    -0.02201372    0.01000866   -0.02974661
     atom   39 type  1   force =    -0.00138233    0.01150087   -0.02046154
     atom   40 type  1   force =    -0.03350375    0.01203534   -0.02364594
     atom   41 type  1   force =    -0.03200813   -0.02564172   -0.01889428
     atom   42 type  1   force =    -0.01549480    0.03665730    0.02292594
     atom   43 type  1   force =     0.00848353    0.02552870   -0.08707271
     atom   44 type  1   force =    -0.00924576   -0.00368049    0.01247696
     atom   45 type  1   force =    -0.01119285   -0.00777068    0.00672859
     atom   46 type  1   force =     0.00569793    0.00967179   -0.02513408
     atom   47 type  1   force =    -0.03200567   -0.02295961   -0.01157568
     atom   48 type  1   force =    -0.03512142    0.02375038   -0.01856471
     atom   49 type  1   force =    -0.08027279   -0.00979553   -0.01927661
     atom   50 type  1   force =     0.10098753    0.08790631    0.07998685
     atom   51 type  1   force =    -0.02506533   -0.00646996   -0.00062648
     atom   52 type  1   force =    -0.01091351   -0.01106496    0.04068843
     atom   53 type  1   force =     0.07478450   -0.04375533    0.00722252
     atom   54 type  1   force =    -0.08731694   -0.31852709   -0.12188140
     atom   55 type  1   force =    -0.14653727    0.09271835    0.00447436
     atom   56 type  1   force =    -0.00628594    0.04898118    0.02004406
     atom   57 type  1   force =    -0.04348125   -0.01512977    0.01777696
     atom   58 type  1   force =    -0.28093674    0.20164262    0.13608196
     atom   59 type  1   force =     0.22731297    0.07429116    0.01375919
     atom   60 type  1   force =    -0.03264455   -0.20653698    0.10794315
     atom   61 type  1   force =     0.00131982    0.00412731    0.03687267
     atom   62 type  1   force =     0.01143827   -0.01827610    0.02668231
     atom   63 type  1   force =     0.00073210   -0.02407946    0.03751357
     atom   64 type  1   force =    -0.04628099    0.07575941    0.02921063
     atom   65 type  2   force =     0.10870884   -0.12690516   -0.13031500
     atom   66 type  3   force =    -0.01311151    0.02099721    0.04869720
     atom   67 type  3   force =    -0.09461006    0.10982811    0.24909101

     Total force =     1.091636     Total SCF correction =     0.003494
     Energy error            =      2.0E-01 Ry
     Gradient error          =      3.6E-01 Ry/Bohr

     number of scf cycles    =   3
     number of bfgs steps    =   2

     energy             old  =  -29502.9261066218 Ry
     energy             new  =  -29503.1307191191 Ry

     CASE: energy            _new < energy            _old

     new trust radius        =       0.6799368921 bohr
     new conv_thr            =       0.0000010000 Ry


ATOMIC_POSITIONS (angstrom)
Zn              -0.0000899697        1.5182811178        0.9969650632
Zn              -1.3048974746        3.7669852992        0.9833653541
Zn              -2.6194570906        6.0425414253        0.9868876479
Zn              -3.9214186525        8.2980283650        0.9855273700
Zn               2.6156691588        1.5121317374        1.0330336047
Zn               1.3013998181        3.7686476486        0.9774795637
Zn               0.0023740016        6.0404277244        1.0163874591
Zn              -1.3145408015        8.2993913070        1.0291417839
[...]
   -13.1675 -13.1534 -13.1381 -13.0986 -13.0729 -13.0582 -13.0336 -13.0206
   -12.9381 -12.9055 -12.8759 -12.8657 -12.8428 -12.8324 -12.8070 -12.8000
   -12.7990 -12.7593 -12.7179 -12.6680 -12.6584 -12.6036 -12.5272 -12.5261
   -12.4595 -12.4426 -12.4384 -12.4062 -12.4009 -12.3508 -12.3251 -12.3048
   -12.2792 -12.2748 -12.2290 -12.2059 -12.1846 -12.1613 -12.1455 -12.1139
   -12.1100 -12.0864 -12.0859 -12.0263 -12.0077 -12.0054 -11.9458 -11.9234
   -11.8841 -11.8517 -11.7670 -11.7488 -11.7275 -11.6935 -11.6869 -11.6695
   -11.6399 -11.5717 -11.5220 -11.4969 -11.4586 -11.4242 -11.4201 -11.3900
   -11.2979 -11.2866 -11.2725 -11.2644 -11.2014 -11.1745 -11.0955 -11.0852
   -11.0342 -11.0272 -10.9815 -10.9193 -10.8782 -10.8515 -10.7472 -10.7333
   -10.6507 -10.5750 -10.5366 -10.4874 -10.3698 -10.2673 -10.2326 -10.1172
   -10.0081  -9.9807  -9.9319  -9.9157  -9.8409  -9.7587  -9.7014  -9.6736
    -9.6662  -9.6367  -9.6322  -9.5922  -9.5754  -9.5006  -9.3816  -9.3383
    -9.3285  -9.2472  -9.1959  -9.1877  -9.1495  -9.1402  -9.1214  -9.0891
    -9.0630  -9.0395  -9.0370  -8.9212  -8.9118  -8.8892  -8.8767  -8.8639
    -8.8401  -8.8184  -8.8145  -8.7880  -8.7567  -8.6989  -8.6941  -8.6533
    -8.6407  -8.6068  -8.5953  -8.5580  -8.5289  -8.5059  -8.4915  -8.4673
    -8.3923  -8.3899  -8.3856  -8.3535  -8.3192  -8.3151  -8.2913  -8.2845
    -8.2631  -8.2527  -8.2263  -8.2178  -8.2040  -8.1887  -8.1671  -8.1148
    -8.0925  -8.0817  -8.0775  -8.0574  -8.0164  -7.9969  -7.9594  -7.9444
    -7.9299  -7.9030  -7.8904  -7.8569  -7.8487  -7.8141  -7.8000  -7.7860
    -7.7705  -7.7493  -7.7375  -7.7306  -7.7276  -7.6962  -7.6255  -7.5664
    -7.5363  -7.5207  -7.5120  -7.4706  -7.4491  -7.4137  -7.3800  -7.3699
    -7.3486  -7.2523  -7.2328  -7.2292  -7.1820  -7.1679  -7.1288  -7.0825
    -7.0553  -7.0138  -7.0018  -6.9881  -6.9239  -6.9171  -6.9149  -6.9038
    -6.8778  -6.8609  -6.8505  -6.8408  -6.8179  -6.8121  -6.7930  -6.7660
    -6.7610  -6.7527  -6.7511  -6.7337  -6.7117  -6.7041  -6.6598  -6.6460
    -6.6149  -6.5898  -6.5627  -6.5591  -6.5135  -6.4743  -6.4341  -6.4275
    -6.3938  -6.3614  -6.3536  -6.3343  -6.3081  -6.2986  -6.2875  -6.2812
    -6.2771  -6.2720  -6.2523  -6.2358  -6.2114  -6.1786  -6.1627  -6.1386
    -6.1373  -6.1056  -6.1054  -6.0661  -6.0397  -6.0158  -5.9876  -5.9604
    -5.9137  -5.8811  -5.8495  -5.7943  -5.7636  -5.6839  -5.6263  -5.4837
    -5.4355  -5.3683  -5.3338  -5.2650  -5.2400  -5.2200  -5.1861  -5.1083
    -5.0863  -4.9880  -4.9607  -4.9401  -4.9232  -4.9049  -4.8951  -4.8726
    -4.8660  -4.8420  -4.8255  -4.8075  -4.7906  -4.7734  -4.7382  -4.7167
    -4.6502  -4.6103  -4.5911  -4.5744  -4.4291  -4.3802  -4.1742  -3.9658
    -3.8570  -3.6704  -3.6358  -3.6028  -3.5162  -3.4815  -3.1495  -2.6845
    -2.4681  -2.3785  -2.2664  -1.4930  -1.1941  -0.8606  -0.6276  -0.5886
    -0.5587  -0.5411  -0.4768  -0.3836  -0.3180  -0.2108  -0.1491  -0.1036
    -0.0174   0.1748   0.3891   0.6835   0.8642   1.1400   2.2083   2.3208
     2.3619   2.4191   2.6986   3.0744   3.1114   3.1457   3.1729   3.2507
     3.2662   3.2978   3.3296   3.3563   3.3701   3.3768   3.4156   3.4764
     3.5030   3.5190   3.5925   3.6537   3.6995   3.7514   3.8522   3.8913
     3.9797   4.0631   4.1139   4.2011   4.2423   4.2902   4.3463   4.5488
     4.5770   4.6805   4.6992   4.8467   4.9644   5.0561   5.1243   5.2620
     5.4009   5.4526   5.5351   5.9759   6.0616   6.1726   6.2895   6.3833
     6.6065   6.6982   6.7531   6.7833   6.8254   6.9217   7.0876   7.2291
     7.3021   7.3589   7.5895   7.6539   7.7162   7.7765   7.8320   7.8988
     7.9823   8.0224   8.0342   8.0720   8.0929   8.1147   8.1593   8.1753
     8.2864   8.3982   8.5104   8.6014   8.7059   8.8168   8.8723   8.9800
     9.0152   9.0839   9.1278   9.1425   9.1573   9.2018   9.2222   9.2443
     9.2660   9.3990   9.4123   9.4459   9.5161   9.5644   9.5830   9.6135
     9.6842   9.7309   9.7922   9.8231   9.8434   9.9574   9.9632  10.0141
    10.0545  10.1385  10.1615  10.2334  10.3254  10.3580  10.4685  10.5235
    10.6029  10.8430  10.8870  10.9063  10.9394  10.9935  11.0157  11.0311
    11.0803  11.1256  11.1717  11.1995  11.2150  11.2630  11.2648  11.3272
    11.3316  11.3863  11.4010  11.4559  11.4842  11.5161  11.5655  11.6085
    11.6247  11.6431  11.6666  11.6877  11.7288

     the Fermi energy is     3.3614 ev

!    total energy              =  -29511.15135317 Ry
     estimated scf accuracy    <       0.00000077 Ry
     smearing contrib. (-TS)   =      -0.04595290 Ry
     internal energy E=F+TS    =  -29511.10540026 Ry

     The total energy is F=E-TS. E is the sum of the following terms:
     one-electron contribution = -238745.84145359 Ry
     hartree contribution      =  119159.14195957 Ry
     xc contribution           =   -2755.68657441 Ry
     ewald contribution        =   92840.81326744 Ry
     one-center paw contrib.   =      -9.53259927 Ry

     convergence has been achieved in  21 iterations

     negative rho (up, down):  1.917E-03 0.000E+00

     Forces acting on atoms (cartesian axes, Ry/au):

     atom    1 type  1   force =    -0.06359888    0.00347968   -0.03936369
     atom    2 type  1   force =    -0.00157841    0.15735275   -0.17789322
     atom    3 type  1   force =     0.08530029   -0.00188945   -0.33058862
     atom    4 type  1   force =    -0.01786217    0.03794976   -0.26077136
     atom    5 type  1   force =    -0.14205399    0.18542769    0.67777060
     atom    6 type  1   force =    -0.00895579   -0.07052410   -0.30521463
     atom    7 type  1   force =    -0.08617774   -0.00005591    0.40234902
     atom    8 type  1   force =    -0.06313427   -0.08200732    0.38539273
     atom    9 type  1   force =     0.05385646    0.15896191   -0.12802592
     atom   10 type  1   force =     0.19896636   -0.05380949   -1.05272897
     atom   11 type  1   force =     0.14851454    0.01526830   -0.08081396
     atom   12 type  1   force =     0.00775669   -0.01269728   -0.44318769
     atom   13 type  1   force =     0.06917506    0.00571571    0.21931304
     atom   14 type  1   force =    -0.21148030   -0.06966748    0.09566049
     atom   15 type  1   force =    -0.40859220   -0.11521468    0.57603841
     atom   16 type  1   force =    -0.04217442   -0.01040320   -0.38433976
     atom   17 type  1   force =     0.72519520    0.08912954    0.03768908
     atom   18 type  1   force =     0.50623400    0.27559004   -0.28284825
     atom   19 type  1   force =    -0.08532750   -0.72168886   -0.44763863
     atom   20 type  1   force =    -1.32324045    0.88819904   -0.98729585
     atom   21 type  1   force =    -0.13170110    0.26763776    0.38060756
     atom   22 type  1   force =     0.44782522   -0.16532791   -0.25542917
     atom   23 type  1   force =     0.62900728   -0.47692497    0.78391318
     atom   24 type  1   force =     0.74872423    0.57412920   -0.06038801
     atom   25 type  1   force =    -0.72436653    0.87621071    0.07734762
     atom   26 type  1   force =     0.19327669   -0.37540253   -0.71459573
     atom   27 type  1   force =     0.05148900   -0.25433391   -0.67111059
     atom   28 type  1   force =     0.24645419   -0.75432081   -0.30535292
     atom   29 type  1   force =    -0.17014474    0.00030990    1.09209014
     atom   30 type  1   force =    -0.99915030   -0.16501579    0.03182241
     atom   31 type  1   force =    -0.55759456    0.15016328    0.32736802
     atom   32 type  1   force =     0.15196290   -0.55819413   -0.26504645
     atom   33 type  1   force =     0.11164538    0.06837349   -0.41990577
     atom   34 type  1   force =    -0.03474125    0.04139066    0.57137858
     atom   35 type  1   force =     0.03971683   -0.14839780   -0.23232414
     atom   36 type  1   force =     0.10143578    0.00632556    0.30678550
     atom   37 type  1   force =     0.02252580   -0.06873107   -0.26293399
     atom   38 type  1   force =     0.12488125   -0.06925324   -0.05767816
     atom   39 type  1   force =     0.09863934    0.01198885    0.08372823
     atom   40 type  1   force =    -0.05798220    0.05777184   -0.05696641
     atom   41 type  1   force =     0.09527283    0.01173866   -0.07920496
     atom   42 type  1   force =    -0.34688792    0.11032128    0.70905657
     atom   43 type  1   force =     0.26027195    0.15255216   -0.97514406
     atom   44 type  1   force =    -0.11179512   -0.18313907    0.60506670
     atom   45 type  1   force =    -0.01000881    0.04995703    0.41644517
     atom   46 type  1   force =     0.19295937   -0.05280940   -0.22069678
     atom   47 type  1   force =    -0.12888643    0.09913286    0.31387566
     atom   48 type  1   force =     0.12224370   -0.23199495    0.15604142
     atom   49 type  1   force =     0.68616533    0.74976938   -0.08638773
     atom   50 type  1   force =     0.78502905    0.92928088    0.69088353
     atom   51 type  1   force =     0.34924067   -0.68617908   -0.39417353
     atom   52 type  1   force =    -0.10360668   -0.20622511    1.44682258
     atom   53 type  1   force =    -0.69709547    0.89876601    0.08901560
     atom   54 type  1   force =     0.08743820   -0.17423747   -0.51367216
     atom   55 type  1   force =     0.36138618   -0.12792164   -0.28020455
     atom   56 type  1   force =     0.73704975    0.11803578   -0.03800963
     atom   57 type  1   force =    -0.70341665   -0.80566682   -0.71256649
     atom   58 type  1   force =    -0.06613881   -0.07935873    0.09381808
     atom   59 type  1   force =     0.21751024   -0.14029742   -0.18288106
     atom   60 type  1   force =    -0.37093844   -0.52106929    0.89951537
     atom   61 type  1   force =     0.32971968   -0.42904944    0.10381276
     atom   62 type  1   force =     0.10925402    1.41134612   -0.24963644
     atom   63 type  1   force =    -1.04889968    0.26078702    0.27499752
     atom   64 type  1   force =    -0.38565203   -0.85711968    0.13460083
     atom   65 type  2   force =    -0.05714012    0.00218593   -0.10054958
     atom   66 type  3   force =     0.06454589    0.00345516    0.07411447
     atom   67 type  3   force =    -0.00034637    0.00022410   -0.00175201

     Total force =     6.064584     Total SCF correction =     0.013188
     Energy error            =      7.6E-01 Ry
     Gradient error          =      1.4E+00 Ry/Bohr

     number of scf cycles    =  16
     number of bfgs steps    =  14

     energy             old  =  -29510.3911340168 Ry
     energy             new  =  -29511.1513531676 Ry

     CASE: energy            _new < energy            _old


     WARNING: bfgs curvature condition failed, Theta= 0.002
     new trust radius        =       0.8000000000 bohr
     new conv_thr            =       0.0000010000 Ry


ATOMIC_POSITIONS (angstrom)
Zn              -0.0004642182        1.5101034618       -0.1743913995
Zn              -1.3037976851        3.7494619058       -0.2715422224
Zn              -2.6540847330        6.0197749834       -0.2721774690
Zn              -3.9283846835        8.3140253963       -0.2923255636
Zn               2.6256383765        1.5352029267       -0.1069209725
Zn               1.3218336375        3.7689892465       -0.3576453354
Zn               0.0311082084        6.0349278568       -0.1351291134
Zn              -1.3179403777        8.3134098910       -0.0658517721
Zn               5.2300638865        1.5233203427       -0.2595937380
Zn               3.9455954241        3.7446575633       -0.8199375585
Zn               2.6373030920        6.0212987603       -0.4258415152
Zn               1.3164389101        8.3013561401       -0.3477249338
Zn               7.8588564850        1.5191730190       -0.1258107386
Zn               6.5114143678        3.7651354382       -0.1378015991
Zn               5.1745687873        5.9943389793       -0.1202846188
Zn               3.9114897960        8.2948833246       -0.2421458642
Zn              -0.1523900995        1.5440242661        5.2140292052
Zn              -1.3235263305        3.8006709759        5.0686527857
Zn              -2.4799553369        6.1870014727        5.1050893746
Zn              -3.7184094385        8.2229428528        5.0003740961
Zn               2.6930764672        1.9560714897        5.1470816394
Zn               1.3625915711        3.6417621034        4.4612727437
Zn              -0.0823137107        6.0613083669        5.2397511201
Zn              -1.3886165846        8.0064411699        5.2289506563
Zn               5.3974223004        1.0361814622        5.1642302051
Zn               3.9739972020        3.8892092308        2.4849585762
Zn               2.7397456878        6.1740151496        4.2303200797
Zn               1.2458734013        8.3091359944        5.0235373736
Zn               7.8167878316        1.5542160172        5.2953393048
Zn               6.9283302861        3.9136017037        5.1998517626
Zn               5.0179565775        5.7761428051        5.0536518891
Zn               3.8136242256        8.4599200244        5.0931011951
Zn               1.3158323841        0.7734284213       -0.3279588853
Zn               0.0300420379        3.0275886617       -0.0875260005
Zn              -1.3063149513        5.3164381065       -0.3053842119
Zn              -2.6362591519        7.5317797864       -0.1177998926
Zn               3.9184489288        0.7633457482       -0.2267527137
Zn               2.6439909959        3.0385648254       -0.4455042278
Zn               1.3223229214        5.2752340594       -0.2712933467
Zn              -0.0032758593        7.5528225865       -0.2024924198
Zn               6.5391549171        0.7626435805       -0.2745715505
Zn               5.1666116382        3.0555550235       -0.1530756249
Zn               3.9339498610        5.2915637393       -0.8106100450
Zn               2.6132903455        7.5319155644       -0.1381862844
Zn               9.1612692391        0.7290320949       -0.0584291341
Zn               7.8001642149        3.0382949389       -0.2457667681
Zn               6.5203219593        5.2676693289       -0.0844254903
Zn               5.2204827477        7.5455015783       -0.1716901130
Zn               1.0871984609        0.6242311692        5.0683935059
Zn               0.0069728853        3.0096232638        5.2875558751
Zn              -1.3614346965        5.3144307096        5.0358352045
Zn              -2.6622832455        7.5320378220        5.3262487963
Zn               3.8202338628        0.5021228181        5.2414216407
Zn               2.6561231888        2.7459921833        3.4148879447
Zn               1.2302437859        5.3638679005        4.5908426755
Zn              -0.0333319972        7.5503955574        5.1608668346
Zn               6.8832909336        0.6563278073        5.0399494788
Zn               4.7822511985        3.3980555263        4.8676507668
Zn               3.9677256756        5.1035047077        3.7297738456
Zn               2.6509326229        7.4650937949        5.1754059369
Zn               9.0428716931        0.8712886966        5.2248461509
Zn               8.0296204409        2.8345701186        5.1593871559
Zn               6.6577523615        5.4687515746        5.2393148772
Zn               5.2638395525        7.7542217517        5.1249276952
O                4.2902186897        2.7802660128        7.3815828399
H                3.3467488946        2.9645386326        6.8300331803
H                1.3498381406        7.0907045880       10.7515577101



     Writing config-only to output data dir /home/ys/Research/PSID_server_room/qe/zinc_surface_water.relax/Zn_002_water/pwscf.save/ :
     XML data file
     NEW-OLD atomic charge density approx. for the potential

     negative rho (up, down):  3.907E-03 0.000E+00

     total cpu time spent up to now is    58717.2 secs

     Self-consistent Calculation

     iteration #  1     ecut=    50.00 Ry     beta= 0.70
     Davidson diagonalization with overlap
     ethr =  1.00E-06,  avg # of iterations = 14.0

     negative rho (up, down):  9.395E-04 0.000E+00

     total cpu time spent up to now is    59299.1 secs

     total energy              =  -29511.81959469 Ry
     estimated scf accuracy    <       0.23945413 Ry

     iteration #  2     ecut=    50.00 Ry     beta= 0.70
     Davidson diagonalization with overlap
     ethr =  1.86E-05,  avg # of iterations = 16.0

     negative rho (up, down):  1.945E-03 0.000E+00

     total cpu time spent up to now is    59504.4 secs

     total energy              =  -29511.12650942 Ry
     estimated scf accuracy    <      37.53026938 Ry

     iteration #  3     ecut=    50.00 Ry     beta= 0.70
     Davidson diagonalization with overlap
     ethr =  1.86E-05,  avg # of iterations = 12.0

     negative rho (up, down):  1.888E-03 0.000E+00

     total cpu time spent up to now is    59687.3 secs

     total energy              =  -29511.65089426 Ry
     estimated scf accuracy    <       8.08210473 Ry

     iteration #  4     ecut=    50.00 Ry     beta= 0.70
     Davidson diagonalization with overlap
     ethr =  1.86E-05,  avg # of iterations = 16.0

     negative rho (up, down):  2.042E-03 0.000E+00

     total cpu time spent up to now is    59867.7 secs

     total energy              =  -29511.80209684 Ry
     estimated scf accuracy    <       3.30098569 Ry

     iteration #  5     ecut=    50.00 Ry     beta= 0.70
     Davidson diagonalization with overlap
     ethr =  1.86E-05,  avg # of iterations =  8.0

     negative rho (up, down):  1.893E-03 0.000E+00

     total cpu time spent up to now is    60024.5 secs

     total energy              =  -29511.89373627 Ry
     estimated scf accuracy    <       0.51196119 Ry

     iteration #  6     ecut=    50.00 Ry     beta= 0.70
     Davidson diagonalization with overlap
     ethr =  1.86E-05,  avg # of iterations =  8.0

     negative rho (up, down):  1.890E-03 0.000E+00

     total cpu time spent up to now is    60182.0 secs

     total energy              =  -29511.88281006 Ry
     estimated scf accuracy    <       0.84761075 Ry

     iteration #  7     ecut=    50.00 Ry     beta= 0.70
     Davidson diagonalization with overlap
     ethr =  1.86E-05,  avg # of iterations =  3.0

     negative rho (up, down):  1.864E-03 0.000E+00

     total cpu time spent up to now is    60333.9 secs

     total energy              =  -29511.91659513 Ry
     estimated scf accuracy    <       0.46921109 Ry

     iteration #  8     ecut=    50.00 Ry     beta= 0.70
     Davidson diagonalization with overlap
     ethr =  1.86E-05,  avg # of iterations =  2.0

     negative rho (up, down):  1.856E-03 0.000E+00

     total cpu time spent up to now is    60480.6 secs

     total energy              =  -29511.91485204 Ry
     estimated scf accuracy    <       0.40379625 Ry

     iteration #  9     ecut=    50.00 Ry     beta= 0.70
     Davidson diagonalization with overlap
     ethr =  1.86E-05,  avg # of iterations =  1.0

     negative rho (up, down):  1.850E-03 0.000E+00

     total cpu time spent up to now is    60607.1 secs

     total energy              =  -29511.92002458 Ry
     estimated scf accuracy    <       0.03052883 Ry

     iteration # 10     ecut=    50.00 Ry     beta= 0.70
     Davidson diagonalization with overlap
     ethr =  2.37E-06,  avg # of iterations =  2.0

     negative rho (up, down):  1.848E-03 0.000E+00

     total cpu time spent up to now is    60755.3 secs

     total energy              =  -29511.92086592 Ry
     estimated scf accuracy    <       0.05553871 Ry

     iteration # 11     ecut=    50.00 Ry     beta= 0.70
     Davidson diagonalization with overlap
     ethr =  2.37E-06,  avg # of iterations =  2.0

     negative rho (up, down):  1.840E-03 0.000E+00

     total cpu time spent up to now is    60903.1 secs

     total energy              =  -29511.92066499 Ry
     estimated scf accuracy    <       0.00618066 Ry

     iteration # 12     ecut=    50.00 Ry     beta= 0.70
     Davidson diagonalization with overlap
