
                                 *****************
                                 * O   R   C   A *
                                 *****************

                                            #,                                       
                                            ###                                      
                                            ####                                     
                                            #####                                    
                                            ######                                   
                                           ########,                                 
                                     ,,################,,,,,                         
                               ,,#################################,,                 
                          ,,##########################################,,             
                       ,#########################################, ''#####,          
                    ,#############################################,,   '####,        
                  ,##################################################,,,,####,       
                ,###########''''           ''''###############################       
              ,#####''   ,,,,##########,,,,          '''####'''          '####       
            ,##' ,,,,###########################,,,                        '##       
           ' ,,###''''                  '''############,,,                           
         ,,##''                                '''############,,,,        ,,,,,,###''
      ,#''                                            '''#######################'''  
     '                                                          ''''####''''         
             ,#######,   #######,   ,#######,      ##                                
            ,#'     '#,  ##    ##  ,#'     '#,    #''#        ,####,   ,####,        
            ##       ##  ##   ,#'  ##            #'  '#       #'       #'  '#        
            ##       ##  #######   ##           ,######,      #####,   #    #        
            '#,     ,#'  ##    ##  '#,     ,#' ,#      #,     #,   #   #,  ,#        
             '#######'   ##     ##  '#######'  #'      '#     '####' # '####'        



                #########################################################
                #                        -***-                          #
                #          Department of theory and spectroscopy        #
                #                                                       #
                #                      Frank Neese                      #
                #                                                       #
                #     Directorship, Architecture, Infrastructure        #
                #                    SHARK, DRIVERS                     #
                #        Core code/Algorithms in most modules           #
                #                                                       #
                #        Max Planck Institute fuer Kohlenforschung      #
                #                Kaiser Wilhelm Platz 1                 #
                #                 D-45470 Muelheim/Ruhr                 #
                #                      Germany                          #
                #                                                       #
                #                  All rights reserved                  #
                #                        -***-                          #
                #########################################################


                         Program Version 6.0.1  -  RELEASE   -


 With contributions from (in alphabetic order):
[Max-Planck-Institut fuer Kohlenforschung]                               
  Daniel Aravena         : Magnetic Suceptibility                        
  Michael Atanasov       : Ab Initio Ligand Field Theory (pilot matlab implementation)
  Alexander A. Auer      : GIAO ZORA, VPT2 properties, NMR spectrum      
  Ute Becker             : All parallelization in ORCA, NUMFREQ, NUMCALC 
  Giovanni Bistoni       : ED, misc. LED, open-shell LED, HFLD           
  Martin Brehm           : Molecular dynamics                            
  Dmytro Bykov           : pre 5.0 version of the SCF Hessian            
  Marcos Casanova-Páez   : Triplet and SCS-CIS(D). UHF-(DLPNO)-IP/EA/STEOM-CCSD. UHF-CVS-IP/STEOM-CCSD   
  Vijay G. Chilkuri      : MRCI spin determinant printing, contributions to CSF-ICE 
  Pauline Colinet        : FMM embedding                                 
  Dipayan Datta          : RHF DLPNO-CCSD density                        
  Achintya Kumar Dutta   : EOM-CC, STEOM-CC                              
  Nicolas Foglia         : Exact transition moments, OPA infrastructure, MCD improvements    
  Dmitry Ganyushin       : Spin-Orbit,Spin-Spin,Magnetic field MRCI      
  Miquel Garcia-Rates    : C-PCM and meta-GGA Hessian, CCSD/C-PCM, Gaussian charge scheme 
  Tiago L. C. Gouveia    : GS-ROHF, GS-ROCIS                             
  Yang Guo               : DLPNO-NEVPT2, F12-NEVPT2, CIM, IAO-localization        
  Andreas Hansen         : Spin unrestricted coupled pair/coupled cluster methods 
  Ingolf Harden          : AUTO-CI MPn and infrastructure                
  Benjamin Helmich-Paris : MC-RPA, TRAH-(SCF,CASSCF), AVAS, COSX integrals, SCF dyn. polar. 
  Lee Huntington         : MR-EOM, pCC                                   
  Robert Izsak           : Overlap fitted RIJCOSX, COSX-SCS-MP3, EOM     
  Riya Kayal             : Wick's Theorem for AUTO-CI, AUTO-CI UHF-CCSDT 
  Emily Kempfer          : AUTO-CI, RHF CISDT and CCSDT                  
  Christian Kollmar      : KDIIS, OOCD, Brueckner-CCSD(T), CCSD density, CASPT2, CASPT2-K, improved NEVPT2 
  Axel Koslowski         : Symmetry handling                             
  Simone Kossmann        : meta-GGA functionals, TD-DFT gradient, OOMP2, (MP2 Hessian; deprecated post 5.0) 
  Lucas Lang             : DCDCAS                                        
  Marvin Lechner         : AUTO-CI (C++ implementation), FIC-MRCC        
  Spencer Leger          : CASSCF response                               
  Dagmar Lenk            : GEPOL surface, SMD, ORCA-2-JSON               
  Dimitrios Liakos       : Extrapolation schemes; Compound Job, initial MDCI parallelization 
  Dimitrios Manganas     : Further ROCIS development; embedding schemes. LFT, Crystal Embedding 
  Dimitrios Pantazis     : SARC Basis sets                               
  Anastasios Papadopoulos: AUTO-CI, single reference methods and gradients 
  Taras Petrenko         : pre 6.0 DFT Hessian and TD-DFT gradient, (ASA, deprecated), ECA, 1-Electron XAS/XES, NRVS 
  Peter Pinski           : DLPNO-MP2, DLPNO-MP2 Gradient                 
  Christoph Reimann      : Effective Core Potentials                     
  Marius Retegan         : Local ZFS, SOC                                
  Christoph Riplinger    : Optimizer, TS searches, QM/MM, DLPNO-CCSD(T), (RO)-DLPNO pert. Triples 
  Michael Roemelt        : Original ROCIS implementation                 
  Masaaki Saitow         : Open-shell DLPNO-CCSD energy and density      
  Barbara Sandhoefer     : DKH picture change effects                    
  Kantharuban Sivalingam : CASSCF convergence/infrastructure, NEVPT2 and variants, FIC-MRCI 
  Bernardo de Souza      : ESD, SOC TD-DFT                               
  Georgi L. Stoychev     : AutoAux, RI-MP2 NMR, DLPNO-MP2 response, X2C  
  Van Anh Tran           : RI-MP2 g-tensors                              
  Willem Van den Heuvel  : Paramagnetic NMR                              
  Zikuan Wang            : NOTCH, Electric field optimization            
  Frank Wennmohs         : Technical directorship and infrastructure     
  Hang Xu                : AUTO-CI-Response properties                   
                                                                         
[FACCTs GmbH]                                                            
  Markus Bursch, Miquel Garcia-Rates, Christoph Riplinger, Bernardo de Souza, Georgi L. Stoychev 
                                                                 
  APM, Basis sets (HGBS, AHGBS, def-TZVP (Ac-Lr), def2-XVPD (La-Lu)), CI-OPT, improved COSX, DLPNO-Multilevel,           
  DOCKER, DRACO, updates on ESD, GOAT, IRC, LR-CPCM, MBIS, meta-GGA TD-DFT gradient, ML-optimized integration grids, 
  MM, NACMEs, nearIR, NEB, NEB-TS, NL-DFT gradient (VV10), 2- and 3-layer-ONIOM, interface openCOSMO-RS, QMMM,   
  Crystal-QMMM, SF, symmetry and pop. for TD-DFT, r2SCAN hybrids, SOLVATOR                                   
                                                                         
[Other institutions]                                                     
  V. Asgeirsson          : NEB                                           
  Christoph Bannwarth    : sTDA-DFT, sTD-DFT, PBEh-3c, B97-3c, D3        
  Sebastian Ehlert       : rSCAN, r2SCAN, r2SCAN-3c, D4, dhf basis sets  
  Marvin Friede          : D4 for Fr, Ra, Ac-Lr                          
  Lars Goerigk           : TD-DFT with DH, B97 family of functionals     
  Stefan Grimme          : VdW corrections, initial TS optimization, DFT functionals, gCP, sTDA/sTD-DF 
  Waldemar Hujo          : DFT-NL                                        
  H. Jonsson             : NEB                                           
  Holger Kruse           : gCP                                           
  Marcel Mueller         : wB97X-3c, vDZP basis set                      
  Hagen Neugebauer       : wr2SCAN                                       
  Tobias Risthaus        : range-separated hybrid DFT                    
  Lukas Wittmann         : regularized MP2, r2SCAN double-hybrids, wr2SCAN        
                                                                         
We gratefully acknowledge several colleagues who have allowed us to      
interface, adapt or use parts of their codes:                            
  Ed Valeev, F. Pavosevic, A. Kumar             : LibInt (2-el integral package), F12 methods 
  Garnet Chan, S. Sharma, J. Yang, R. Olivares  : DMRG                   
  Ulf Ekstrom                                   : XCFun DFT Library      
  Mihaly Kallay                                 : mrcc  (arbitrary order and MRCC methods)
  Frank Weinhold                                : gennbo (NPA and NBO analysis)           
  Simon Mueller                                 : openCOSMO-RS                            
  Christopher J. Cramer and Donald G. Truhlar   : smd solvation model                     
  S Lehtola, MJT Oliveira, MAL Marques          : LibXC Library                           
  Liviu Ungur et al                             : ANISO software                          


 Your calculation uses the libint2 library for the computation of 2-el integrals
 For citations please refer to: http://libint.valeyev.net

 Your ORCA version has been built with support for libXC version: 6.2.2
 For citations please refer to: https://libxc.gitlab.io

 This ORCA versions uses:
   CBLAS   interface :  Fast vector & matrix operations
   LAPACKE interface :  Fast linear algebra routines
   SCALAPACK package :  Parallel linear algebra routines
   Shared memory     :  Shared parallel matrices
   BLAS/LAPACK       :  OpenBLAS 0.3.27  USE64BITINT DYNAMIC_ARCH NO_AFFINITY SkylakeX SINGLE_THREADED
        Core in use  :  SkylakeX
   Copyright (c) 2011-2014, The OpenBLAS Project


NOTE: MaxCore=3000 MB was set to SCF,MP2,MDCI,CIPSI,MRCI and CIS
      => If you want to overwrite this, your respective input block should be placed after the MaxCore statement
Your calculation utilizes the atom-pairwise dispersion correction
with the Becke-Johnson damping scheme (D3BJ)


Warning: RI is on but no J-basis has been assigned. Assigning Def2/J (nothing to worry about!)
================================================================================

----- Orbital basis set information -----
Your calculation utilizes the basis: def2-SVP
   F. Weigend and R. Ahlrichs, Phys. Chem. Chem. Phys. 7, 3297 (2005).

----- AuxJ basis set information -----
Your calculation utilizes the auxiliary basis: def2/J
   F. Weigend, Phys. Chem. Chem. Phys. 8, 1057 (2006).

================================================================================
                                        WARNINGS
                       Please study these warnings very carefully!
================================================================================


WARNING: Geometry Optimization
  ===> : Switching off AutoStart
         For restart on a previous wavefunction, please use MOREAD

================================================================================
                                       INPUT FILE
================================================================================
NAME = 4nitroaniline_water_2_OPT.inp
|  1> ! B3LYP def2-SVP OPT TightSCF D3BJ
|  2> 
|  3> 
|  4> %maxcore 3000
|  5> 
|  6> %pal
|  7> nprocs 40
|  8> end
|  9> 
| 10> * xyz 0 1
| 11> O        2.6564963626     -0.4722564747      1.3460196757                 
| 12> O        2.7259080305     -0.3265998663     -0.8139524062                 
| 13> N        2.1558443160     -0.2106614206      0.2614139524                 
| 14> N       -3.1553403472      1.7003671867      0.2126769946                 
| 15> C        0.7729260133      0.2767374523      0.2497518301                 
| 16> C       -1.8604934406      1.1930728056      0.2273325816                 
| 17> C        0.0881684338      0.4191680035      1.4577632685                 
| 18> C        0.1663100526      0.5922657996     -0.9693027506                 
| 19> C       -1.2240497158      0.8761616919      1.4438104185                 
| 20> C       -1.1432349543      1.0520328581     -0.9809034412                 
| 21> H        0.5946433983      0.1639193557      2.3879449460                 
| 22> H        0.7367856384      0.4741678288     -1.8901038612                 
| 23> H       -1.7698062444      0.9868535293      2.3845312156                 
| 24> H       -1.6222011759      1.3492181384     -1.9152789499                 
| 25> H       -3.6886502349      1.5589531537      1.0703559515                 
| 26> H       -3.7030974023      1.4833980528     -0.6159829244                 
| 27> O       -4.4462992333      4.4818280121      0.4280744754                 
| 28> H       -3.8637438530      3.7160420644      0.3304013606                 
| 29> H       -3.8326586184      5.2338695460      0.3788509797                 
| 30>                             
| 31> *           
| 32> 
| 33> 
| 34>                          ****END OF INPUT****
================================================================================

                       *****************************
                       * Geometry Optimization Run *
                       *****************************

Geometry optimization settings:
Update method            Update   .... BFGS
Choice of coordinates    CoordSys .... (2022) Redundant Internals
Initial Hessian          InHess   .... Almloef's Model
Max. no of cycles        MaxIter  .... 57

Convergence Tolerances:
Energy Change            TolE     ....  5.0000e-06 Eh
Max. Gradient            TolMAXG  ....  3.0000e-04 Eh/bohr
RMS Gradient             TolRMSG  ....  1.0000e-04 Eh/bohr
Max. Displacement        TolMAXD  ....  4.0000e-03 bohr
RMS Displacement         TolRMSD  ....  2.0000e-03 bohr
Strict Convergence                .... False

------------------------------------------------------------------------------
                        ORCA OPTIMIZATION COORDINATE SETUP
------------------------------------------------------------------------------

The optimization will be done in redundant internal coordinates (2022)
Making redundant internal coordinates   ...  (2022 redundants) done
Evaluating the initial hessian          ...  (Almloef) done
Evaluating the coordinates              ...  done
Calculating the B-matrix                .... done
Calculating the G-matrix                .... done
Diagonalizing the G-matrix              .... done
Small eigenvalue found = 2.921e-02
The first mode is                       ....   56
The number of degrees of freedom        ....   51

    -----------------------------------------------------------------
                    Redundant Internal Coordinates


    -----------------------------------------------------------------
         Definition                    Initial Value    Approx d2E/dq
    -----------------------------------------------------------------
      1. B(N   2,O   0)                  1.2229         0.926040   
      2. B(N   2,O   1)                  1.2226         0.926912   
      3. B(C   4,N   2)                  1.4663         0.422744   
      4. B(C   5,N   3)                  1.3908         0.558053   
      5. B(C   6,C   4)                  1.3959         0.611453   
      6. B(C   7,C   4)                  1.3977         0.607315   
      7. B(C   8,C   5)                  1.4090         0.582650   
      8. B(C   8,C   6)                  1.3896         0.625743   
      9. B(C   9,C   7)                  1.3880         0.629500   
     10. B(C   9,C   5)                  1.4122         0.575956   
     11. B(H  10,C   6)                  1.0895         0.360825   
     12. B(H  11,C   7)                  1.0896         0.360608   
     13. B(H  12,C   8)                  1.0932         0.355908   
     14. B(H  13,C   9)                  1.0912         0.358475   
     15. B(H  14,N   3)                  1.0198         0.417378   
     16. B(H  15,N   3)                  1.0168         0.422102   
     17. B(H  17,H  15)                  2.4303         0.000501   
     18. B(H  17,H  14)                  2.2872         0.000848   
     19. B(H  17,N   3)                  2.1398         0.006819   
     20. B(H  17,O  16)                  0.9671         0.506515   
     21. B(H  18,O  16)                  0.9719         0.497758   
     22. A(O   0,N   2,C   4)          117.6628         0.426955   
     23. A(O   0,N   2,O   1)          124.6750         0.489286   
     24. A(O   1,N   2,C   4)          117.6622         0.427027   
     25. A(H  14,N   3,H  15)          111.9694         0.300325   
     26. A(C   5,N   3,H  15)          115.6156         0.350845   
     27. A(C   5,N   3,H  14)          115.3053         0.350179   
     28. A(H  15,N   3,H  17)           93.8705         0.172277   
     29. A(H  14,N   3,H  17)           84.9069         0.172065   
     30. A(C   5,N   3,H  17)          130.6368         0.191923   
     31. A(C   6,C   4,C   7)          121.2553         0.431378   
     32. A(N   2,C   4,C   6)          119.3197         0.401828   
     33. A(N   2,C   4,C   7)          119.4250         0.401348   
     34. A(N   3,C   5,C   8)          120.7762         0.418503   
     35. A(C   8,C   5,C   9)          119.1302         0.423620   
     36. A(N   3,C   5,C   9)          120.0203         0.417642   
     37. A(C   8,C   6,H  10)          121.6433         0.353581   
     38. A(C   4,C   6,H  10)          119.1393         0.352201   
     39. A(C   4,C   6,C   8)          119.2165         0.433702   
     40. A(C   4,C   7,C   9)          119.4426         0.433639   
     41. A(C   9,C   7,H  11)          121.5214         0.353903   
     42. A(C   4,C   7,H  11)          119.0356         0.351761   
     43. A(C   6,C   8,H  12)          119.7421         0.352760   
     44. A(C   5,C   8,C   6)          120.6095         0.429958   
     45. A(C   5,C   8,H  12)          119.6479         0.348535   
     46. A(C   5,C   9,C   7)          120.3417         0.429529   
     47. A(C   7,C   9,H  13)          120.7635         0.353548   
     48. A(C   5,C   9,H  13)          118.8472         0.348278   
     49. A(N   3,H  14,H  17)           68.7259         0.130927   
     50. A(N   3,H  15,H  17)           61.4577         0.126319   
     51. A(H  17,O  16,H  18)          103.1362         0.318183   
     52. A(H  14,H  17,O  16)          139.4830         0.132804   
     53. A(N   3,H  17,O  16)          161.9646         0.175785   
     54. A(H  14,H  17,H  15)           41.7974         0.096404   
     55. A(N   3,H  17,H  15)           24.6718         0.103669   
     56. A(H  15,H  17,O  16)          143.7625         0.127891   
     57. A(N   3,H  17,H  14)           26.3672         0.105522   
     58. D(C   7,C   4,N   2,O   0)    179.7316         0.014082   
     59. D(C   7,C   4,N   2,O   1)     -0.2759         0.014082   
     60. D(C   6,C   4,N   2,O   0)     -0.1439         0.014082   
     61. D(C   6,C   4,N   2,O   1)    179.8485         0.014082   
     62. D(C   8,C   5,N   3,H  14)    -17.7426         0.027007   
     63. D(C   8,C   5,N   3,H  17)     88.3012         0.027007   
     64. D(C   9,C   5,N   3,H  15)     32.1130         0.027007   
     65. D(C   9,C   5,N   3,H  14)    165.3971         0.027007   
     66. D(C   8,C   5,N   3,H  15)   -151.0266         0.027007   
     67. D(H  10,C   6,C   4,C   7)   -179.9466         0.025829   
     68. D(C   8,C   6,C   4,C   7)      0.3811         0.025829   
     69. D(H  10,C   6,C   4,N   2)     -0.0734         0.025829   
     70. D(C   8,C   6,C   4,N   2)   -179.7457         0.025829   
     71. D(C   9,C   7,C   4,C   6)     -0.2080         0.025460   
     72. D(C   9,C   7,C   4,N   2)    179.9189         0.025460   
     73. D(H  11,C   7,C   4,C   6)    179.5680         0.025460   
     74. D(H  11,C   7,C   4,N   2)     -0.3050         0.025460   
     75. D(H  12,C   8,C   6,H  10)      0.0763         0.027125   
     76. D(H  12,C   8,C   6,C   4)    179.7401         0.027125   
     77. D(C   5,C   8,C   6,H  10)   -179.6487         0.027125   
     78. D(C   5,C   8,C   6,C   4)      0.0151         0.027125   
     79. D(H  12,C   8,C   5,C   9)    179.7057         0.023334   
     80. D(H  12,C   8,C   5,N   3)      2.8178         0.023334   
     81. D(C   6,C   8,C   5,C   9)     -0.5691         0.023334   
     82. D(C   6,C   8,C   5,N   3)   -177.4570         0.023334   
     83. D(C   5,C   9,C   7,C   4)     -0.3606         0.027473   
     84. D(H  13,C   9,C   5,C   8)   -176.7653         0.022776   
     85. D(H  13,C   9,C   5,N   3)      0.1466         0.022776   
     86. D(C   7,C   9,C   5,C   8)      0.7432         0.022776   
     87. D(C   5,C   9,C   7,H  11)    179.8691         0.027473   
     88. D(C   7,C   9,C   5,N   3)    177.6551         0.022776   
     89. D(H  13,C   9,C   7,H  11)     -2.6706         0.027473   
     90. D(H  13,C   9,C   7,C   4)    177.0997         0.027473   
     91. D(H  17,H  14,N   3,H  15)    -92.1274         0.218846   
     92. D(H  17,H  14,N   3,C   5)    132.9300         0.218846   
     93. D(H  17,H  15,N   3,H  14)     86.0634         0.225137   
     94. D(H  17,H  15,N   3,C   5)   -139.1424         0.225137   
     95. D(H  15,H  17,O  16,H  18)   -144.0664         0.358399   
     96. D(H  14,H  17,O  16,H  18)    146.0903         0.358399   
     97. D(N   3,H  17,O  16,H  18)    176.7050         0.358399   
     98. D(O  16,H  17,H  15,N   3)   -152.0261         0.001503   
     99. D(H  15,H  17,H  14,N   3)     35.5726         0.001507   
    100. D(O  16,H  17,H  14,N   3)    159.2057         0.001507   
    101. D(H  15,H  17,N   3,C   5)    128.9825         0.001532   
    102. D(H  14,H  17,N   3,H  15)    111.7417         0.001532   
    103. D(H  14,H  17,H  15,N   3)    -38.2395         0.001503   
    104. D(H  14,H  17,N   3,C   5)   -119.2759         0.001532   
    105. D(O  16,H  17,N   3,H  15)     63.5859         0.001532   
    106. D(O  16,H  17,N   3,H  14)    -48.1557         0.001532   
    107. D(O  16,H  17,N   3,C   5)   -167.4316         0.001532   
    -----------------------------------------------------------------

Number of atoms                         .... 19
Number of degrees of freedom            .... 107


         *************************************************************
         *                GEOMETRY OPTIMIZATION CYCLE   1            *
         *************************************************************
---------------------------------
CARTESIAN COORDINATES (ANGSTROEM)
---------------------------------
  O      2.656496   -0.472256    1.346020
  O      2.725908   -0.326600   -0.813952
  N      2.155844   -0.210661    0.261414
  N     -3.155340    1.700367    0.212677
  C      0.772926    0.276737    0.249752
  C     -1.860493    1.193073    0.227333
  C      0.088168    0.419168    1.457763
  C      0.166310    0.592266   -0.969303
  C     -1.224050    0.876162    1.443810
  C     -1.143235    1.052033   -0.980903
  H      0.594643    0.163919    2.387945
  H      0.736786    0.474168   -1.890104
  H     -1.769806    0.986854    2.384531
  H     -1.622201    1.349218   -1.915279
  H     -3.688650    1.558953    1.070356
  H     -3.703097    1.483398   -0.615983
  O     -4.446299    4.481828    0.428074
  H     -3.863744    3.716042    0.330401
  H     -3.832659    5.233870    0.378851

----------------------------
CARTESIAN COORDINATES (A.U.)
----------------------------
  NO LB      ZA    FRAG     MASS         X           Y           Z
   0 O     8.0000    0    15.999    5.020051   -0.892435    2.543609
   1 O     8.0000    0    15.999    5.151220   -0.617184   -1.538147
   2 N     7.0000    0    14.007    4.073955   -0.398092    0.494001
   3 N     7.0000    0    14.007   -5.962729    3.213228    0.401901
   4 C     6.0000    0    12.011    1.460618    0.522958    0.471963
   5 C     6.0000    0    12.011   -3.515823    2.254581    0.429596
   6 C     6.0000    0    12.011    0.166614    0.792113    2.754773
   7 C     6.0000    0    12.011    0.314280    1.119220   -1.831717
   8 C     6.0000    0    12.011   -2.313119    1.655706    2.728406
   9 C     6.0000    0    12.011   -2.160401    1.988054   -1.853639
  10 H     1.0000    0     1.008    1.123713    0.309763    4.512562
  11 H     1.0000    0     1.008    1.392323    0.896047   -3.571779
  12 H     1.0000    0     1.008   -3.344449    1.864883    4.506111
  13 H     1.0000    0     1.008   -3.065516    2.549653   -3.619353
  14 H     1.0000    0     1.008   -6.970539    2.945995    2.022680
  15 H     1.0000    0     1.008   -6.997840    2.803216   -1.164039
  16 O     8.0000    0    15.999   -8.402288    8.469428    0.808944
  17 H     1.0000    0     1.008   -7.301418    7.022302    0.624368
  18 H     1.0000    0     1.008   -7.242675    9.890580    0.715925

--------------------------------
INTERNAL COORDINATES (ANGSTROEM)
--------------------------------
 O      0   0   0     0.000000000000     0.00000000     0.00000000
 O      1   0   0     2.165990125046     0.00000000     0.00000000
 N      2   1   0     1.222631247347    27.66565859     0.00000000
 N      3   2   1     5.644739866069   117.59491914   179.58971835
 C      3   2   1     1.466341262580   117.66219365   180.00811853
 C      4   3   2     1.390751914202     1.60850741    98.33762312
 C      5   3   2     1.395876441489   119.31967914   179.84854870
 C      5   3   2     1.397724984556   119.42495034   359.72408087
 C      7   5   3     1.389587847313   119.21651626   180.25428662
 C      8   5   3     1.387958374448   119.44261588   179.91892710
 H      7   5   3     1.089452484061   119.13933854   359.92658053
 H      8   5   3     1.089616542635   119.03555856   359.69497521
 H      9   7   5     1.093187307589   119.74213234   179.74010045
 H     10   8   5     1.091231104542   120.76352471   177.09967591
 H      4   3   2     1.019818884978   115.96598218   164.43929161
 H      4   3   2     1.016754964499   116.21167014    29.72549167
 O      4   3   2     3.074003130052   134.49691364   268.31497786
 H     17   4   3     0.967129218960    12.44557313    13.36851889
 H     17   4   3     0.971876651378   115.55977314     9.81136153

---------------------------
INTERNAL COORDINATES (A.U.)
---------------------------
 O      0   0   0     0.000000000000     0.00000000     0.00000000
 O      1   0   0     4.093128145116     0.00000000     0.00000000
 N      2   1   0     2.310438220261    27.66565859     0.00000000
 N      3   2   1    10.667012444097   117.59491914   179.58971835
 C      3   2   1     2.770983405144   117.66219365   180.00811853
 C      4   3   2     2.628140238069     1.60850741    98.33762312
 C      5   3   2     2.637824191206   119.31967914   179.84854870
 C      5   3   2     2.641317431350   119.42495034   359.72408087
 C      7   5   3     2.625940470447   119.21651626   180.25428662
 C      8   5   3     2.622861212990   119.44261588   179.91892710
 H      7   5   3     2.058766830795   119.13933854   359.92658053
 H      8   5   3     2.059076856570   119.03555856   359.69497521
 H      9   7   5     2.065824624421   119.74213234   179.74010045
 H     10   8   5     2.062127936400   120.76352471   177.09967591
 H      4   3   2     1.927178398809   115.96598218   164.43929161
 H      4   3   2     1.921388428209   116.21167014    29.72549167
 O      4   3   2     5.809024050615   134.49691364   268.31497786
 H     17   4   3     1.827609359947    12.44557313    13.36851889
 H     17   4   3     1.836580707058   115.55977314     9.81136153

---------------------
BASIS SET INFORMATION
---------------------
There are 4 groups of distinct atoms

 Group   1 Type O   : 7s4p1d contracted to 3s2p1d pattern {511/31/1}
 Group   2 Type N   : 7s4p1d contracted to 3s2p1d pattern {511/31/1}
 Group   3 Type C   : 7s4p1d contracted to 3s2p1d pattern {511/31/1}
 Group   4 Type H   : 4s1p contracted to 2s1p pattern {31/1}

Atom   0O    basis set group =>   1
Atom   1O    basis set group =>   1
Atom   2N    basis set group =>   2
Atom   3N    basis set group =>   2
Atom   4C    basis set group =>   3
Atom   5C    basis set group =>   3
Atom   6C    basis set group =>   3
Atom   7C    basis set group =>   3
Atom   8C    basis set group =>   3
Atom   9C    basis set group =>   3
Atom  10H    basis set group =>   4
Atom  11H    basis set group =>   4
Atom  12H    basis set group =>   4
Atom  13H    basis set group =>   4
Atom  14H    basis set group =>   4
Atom  15H    basis set group =>   4
Atom  16O    basis set group =>   1
Atom  17H    basis set group =>   4
Atom  18H    basis set group =>   4
---------------------------------
AUXILIARY/J BASIS SET INFORMATION
---------------------------------
There are 4 groups of distinct atoms

 Group   1 Type O   : 12s5p4d2f1g contracted to 6s4p3d1f1g pattern {711111/2111/211/2/1}
 Group   2 Type N   : 12s5p4d2f1g contracted to 6s4p3d1f1g pattern {711111/2111/211/2/1}
 Group   3 Type C   : 12s5p4d2f1g contracted to 6s4p3d1f1g pattern {711111/2111/211/2/1}
 Group   4 Type H   : 5s2p1d contracted to 3s1p1d pattern {311/2/1}

Atom   0O    basis set group =>   1
Atom   1O    basis set group =>   1
Atom   2N    basis set group =>   2
Atom   3N    basis set group =>   2
Atom   4C    basis set group =>   3
Atom   5C    basis set group =>   3
Atom   6C    basis set group =>   3
Atom   7C    basis set group =>   3
Atom   8C    basis set group =>   3
Atom   9C    basis set group =>   3
Atom  10H    basis set group =>   4
Atom  11H    basis set group =>   4
Atom  12H    basis set group =>   4
Atom  13H    basis set group =>   4
Atom  14H    basis set group =>   4
Atom  15H    basis set group =>   4
Atom  16O    basis set group =>   1
Atom  17H    basis set group =>   4
Atom  18H    basis set group =>   4
--------------------------------------------------------------------------
By default, for Open MPI 4.0 and later, infiniband ports on a device
are not used by default.  The intent is to use UCX for these devices.
You can override this policy by setting the btl_openib_allow_ib MCA parameter
to true.

  Local host:              psid00
  Local adapter:           mlx5_0
  Local port:              1

--------------------------------------------------------------------------
--------------------------------------------------------------------------
WARNING: There was an error initializing an OpenFabrics device.

  Local host:   psid00
  Local device: mlx5_0
--------------------------------------------------------------------------


           ************************************************************
           *        Program running with 40 parallel MPI-processes    *
           *              working on a common directory               *
           ************************************************************
------------------------------------------------------------------------------
                             ORCA STARTUP CALCULATIONS
                           -- RI-GTO INTEGRALS CHOSEN --
------------------------------------------------------------------------------
------------------------------------------------------------------------------
                   ___                                                        
                  /   \      - P O W E R E D   B Y -                         
                 /     \                                                     
                 |  |  |   _    _      __       _____    __    __             
                 |  |  |  | |  | |    /  \     |  _  \  |  |  /  |          
                  \  \/   | |  | |   /    \    | | | |  |  | /  /          
                 / \  \   | |__| |  /  /\  \   | |_| |  |  |/  /          
                |  |  |   |  __  | /  /__\  \  |    /   |      \           
                |  |  |   | |  | | |   __   |  |    \   |  |\   \          
                \     /   | |  | | |  |  |  |  | |\  \  |  | \   \       
                 \___/    |_|  |_| |__|  |__|  |_| \__\ |__|  \__/        
                                                                              
                      - O R C A' S   B I G   F R I E N D -                    
                                      &                                       
                       - I N T E G R A L  F E E D E R -                       
                                                                              
 v1 FN, 2020, v2 2021, v3 2022-2024                                           
------------------------------------------------------------------------------


----------------------
SHARK INTEGRAL PACKAGE
----------------------

Number of atoms                             ...     19
Number of basis functions                   ...    194
Number of shells                            ...     90
Maximum angular momentum                    ...      2
Integral batch strategy                     ... SHARK/LIBINT Hybrid
RI-J (if used) integral strategy            ... SPLIT-RIJ (Revised 2003 algorithm where possible)
Printlevel                                  ...      1
Contraction scheme used                     ... SEGMENTED contraction
Prescreening option                         ... SCHWARTZ
   Thresh                                   ... 2.500e-11
   Tcut                                     ... 2.500e-12
   Tpresel                                  ... 2.500e-12 
Coulomb Range Separation                    ... NOT USED
Exchange Range Separation                   ... NOT USED
Multipole approximations                    ... NOT USED
Finite Nucleus Model                        ... NOT USED
CABS basis                                  ... NOT available
Auxiliary Coulomb fitting basis             ... AVAILABLE
   # of basis functions in Aux-J            ...    627
   # of shells in Aux-J                     ...    205
   Maximum angular momentum in Aux-J        ...      4
Auxiliary J/K fitting basis                 ... NOT available
Auxiliary Correlation fitting basis         ... NOT available
Auxiliary 'external' fitting basis          ... NOT available

Checking pre-screening integrals            ... done (  0.0 sec) Dimension = 90
Check shell pair data                       ... done (  0.0 sec)
Shell pair information
Shell pair cut-off parameter TPreSel        ...   2.5e-12
Total number of shell pairs                 ...      4095
Shell pairs after pre-screening             ...      3415
Total number of primitive shell pairs       ...     15045
Primitive shell pairs kept                  ...      8757
          la=0 lb=0:   1037 shell pairs
          la=1 lb=0:   1244 shell pairs
          la=1 lb=1:    389 shell pairs
          la=2 lb=0:    431 shell pairs
          la=2 lb=1:    263 shell pairs
          la=2 lb=2:     51 shell pairs

Calculating one electron integrals          ... done (  0.0 sec)
Calculating RI/J V-Matrix + Cholesky decomp.... done (  0.0 sec)
Calculating Nuclear repulsion               ... done (  0.0 sec) ENN=    573.849967549188 Eh

Diagonalization of the overlap matrix:
Smallest eigenvalue                        ... 2.591e-04
Time for diagonalization                   ...    0.006 sec
Threshold for overlap eigenvalues          ... 1.000e-07
Number of eigenvalues below threshold      ... 0
Time for construction of square roots      ...    0.002 sec
Total time needed                          ...    0.009 sec

-------------------
DFT GRID GENERATION
-------------------

General Integration Accuracy     IntAcc      ... 4.388
Radial Grid Type                 RadialGrid  ... OptM3 with GC (2021)
Angular Grid (max. ang.)         AngularGrid ... 4 (Lebedev-302)
Angular grid pruning method      GridPruning ... 4 (adaptive)
Weight generation scheme         WeightScheme... mBecke (2022)
Basis function cutoff            BFCut       ... 1.0000e-11
Integration weight cutoff        WCut        ... 1.0000e-14
Partially contracted basis set               ... off
Rotationally invariant grid construction     ... off
Angular grids for H and He will be reduced by one unit

Total number of grid points                  ...    92242
Total number of batches                      ...     1451
Average number of points per batch           ...       63
Average number of grid points per atom       ...     4855

--------------------
COSX GRID GENERATION
--------------------

GRIDX 1
-------
General Integration Accuracy     IntAcc      ... 3.816
Radial Grid Type                 RadialGrid  ... OptM3 with GC (2021)
Angular Grid (max. ang.)         AngularGrid ... 1 (Lebedev-50)
Angular grid pruning method      GridPruning ... 4 (adaptive)
Weight generation scheme         WeightScheme... mBecke (2022)
Basis function cutoff            BFCut       ... 1.0000e-11
Integration weight cutoff        WCut        ... 1.0000e-14
Partially contracted basis set               ... on
Rotationally invariant grid construction     ... off
Angular grids for H and He will be reduced by one unit

Total number of grid points                  ...    11754
Total number of batches                      ...      102
Average number of points per batch           ...      115
Average number of grid points per atom       ...      619
UseSFitting                                  ... on

GRIDX 2
-------
General Integration Accuracy     IntAcc      ... 4.020
Radial Grid Type                 RadialGrid  ... OptM3 with GC (2021)
Angular Grid (max. ang.)         AngularGrid ... 2 (Lebedev-110)
Angular grid pruning method      GridPruning ... 4 (adaptive)
Weight generation scheme         WeightScheme... mBecke (2022)
Basis function cutoff            BFCut       ... 1.0000e-11
Integration weight cutoff        WCut        ... 1.0000e-14
Partially contracted basis set               ... on
Rotationally invariant grid construction     ... off
Angular grids for H and He will be reduced by one unit

Total number of grid points                  ...    26012
Total number of batches                      ...      210
Average number of points per batch           ...      123
Average number of grid points per atom       ...     1369
UseSFitting                                  ... on

GRIDX 3
-------
General Integration Accuracy     IntAcc      ... 4.338
Radial Grid Type                 RadialGrid  ... OptM3 with GC (2021)
Angular Grid (max. ang.)         AngularGrid ... 3 (Lebedev-194)
Angular grid pruning method      GridPruning ... 4 (adaptive)
Weight generation scheme         WeightScheme... mBecke (2022)
Basis function cutoff            BFCut       ... 1.0000e-11
Integration weight cutoff        WCut        ... 1.0000e-14
Partially contracted basis set               ... on
Rotationally invariant grid construction     ... off
Angular grids for H and He will be reduced by one unit

Total number of grid points                  ...    57160
Total number of batches                      ...      456
Average number of points per batch           ...      125
Average number of grid points per atom       ...     3008
UseSFitting                                  ... on
Initializing property integral containers    ... done (  0.0 sec)

SHARK setup successfully completed in   3.0 seconds

Maximum memory used throughout the entire STARTUP-calculation: 23.3 MB
[psid00:215159] 39 more processes have sent help message help-mpi-btl-openib.txt / ib port not selected
[psid00:215159] Set MCA parameter "orte_base_help_aggregate" to 0 to see all help / error messages
[psid00:215159] 39 more processes have sent help message help-mpi-btl-openib.txt / error in device init
--------------------------------------------------------------------------
By default, for Open MPI 4.0 and later, infiniband ports on a device
are not used by default.  The intent is to use UCX for these devices.
You can override this policy by setting the btl_openib_allow_ib MCA parameter
to true.

  Local host:              psid00
  Local adapter:           mlx5_0
  Local port:              1

--------------------------------------------------------------------------
--------------------------------------------------------------------------
WARNING: There was an error initializing an OpenFabrics device.

  Local host:   psid00
  Local device: mlx5_0
--------------------------------------------------------------------------


           ************************************************************
           *        Program running with 40 parallel MPI-processes    *
           *              working on a common directory               *
           ************************************************************
-------------------------------------------------------------------------------
                                 ORCA GUESS
                   Start orbitals & Density for SCF / CASSCF
-------------------------------------------------------------------------------

------------
SCF SETTINGS
------------
Hamiltonian:
 Density Functional     Method          .... DFT(GTOs)
 Exchange Functional    Exchange        .... B88
   X-Alpha parameter    XAlpha          ....  0.666667
   Becke's b parameter  XBeta           ....  0.004200
 Correlation Functional Correlation     .... LYP
 LDA part of GGA corr.  LDAOpt          .... VWN-5
 Gradients option       PostSCFGGA      .... off
 Hybrid DFT is turned on
   Fraction HF Exchange ScalHFX         ....  0.200000
   Scaling of DF-GGA-X  ScalDFX         ....  0.720000
   Scaling of DF-GGA-C  ScalDFC         ....  0.810000
   Scaling of DF-LDA-C  ScalLDAC        ....  1.000000
   Perturbative correction              ....  0.000000
   NL short-range parameter             ....  4.800000
 RI-approximation to the Coulomb term is turned on
   Number of AuxJ basis functions       .... 627
   RIJ-COSX (HFX calculated with COS-X)).... on


General Settings:
 Integral files         IntName         .... 4nitroaniline_water_2_OPT
 Hartree-Fock type      HFTyp           .... RHF
 Total Charge           Charge          ....    0
 Multiplicity           Mult            ....    1
 Number of Electrons    NEL             ....   82
 Basis Dimension        Dim             ....  194
 Nuclear Repulsion      ENuc            ....    573.8499675492 Eh

Convergence Acceleration:
 AO-DIIS                CNVDIIS         .... on
   Start iteration      DIISMaxIt       ....    12
   Startup error        DIISStart       ....  0.200000
   # of expansion vecs  DIISMaxEq       ....     5
   Bias factor          DIISBfac        ....   1.050
   Max. coefficient     DIISMaxC        ....  10.000
 MO-DIIS                CNVKDIIS        .... off
 Trust-Rad. Augm. Hess. CNVTRAH         .... auto
   Auto Start mean grad. ratio tolernc. ....  1.125000
   Auto Start start iteration           ....    50
   Auto Start num. interpolation iter.  ....    10
   Max. Number of Micro iterations      ....    24
   Max. Number of Macro iterations      .... Maxiter - #DIIS iter
   Number of Davidson start vectors     ....     2
   Converg. threshold    (grad. norm)   ....   1.000e-05
   Grad. Scal. Fac. for Micro threshold ....   0.100
   Minimum threshold for Micro iter.    ....   1.000e-02
   NR start threshold (gradient norm)   ....   1.000e-04
   Initial trust radius                 ....   0.400
   Minimum AH scaling param. (alpha)    ....   1.000
   Maximum AH scaling param. (alpha)    .... 1000.000
   Quad. conv. algorithm                .... NR
   White noise on init. David. guess    .... on
   Maximum white noise                  ....   0.010
   Pseudo random numbers                .... off
   Inactive MOs                         .... canonical
   Orbital update algorithm             .... Taylor
   Preconditioner                       .... Diag
   Full preconditioner red. dimension   ....   250
 SOSCF                  CNVSOSCF        .... on
   Start iteration      SOSCFMaxIt      ....   150
   Startup grad/error   SOSCFStart      ....  0.003300
   Hessian update       SOSCFHessUp     .... L-BFGS
 Level Shifting         CNVShift        .... on
   Level shift para.    LevelShift      ....    0.2500
   Turn off err/grad.   ShiftErr        ....    0.0010
 Zerner damping         CNVZerner       .... off
 Static damping         CNVDamp         .... on
   Fraction old density DampFac         ....    0.7000
   Max. Damping (<1)    DampMax         ....    0.9800
   Min. Damping (>=0)   DampMin         ....    0.0000
   Turn off err/grad.   DampErr         ....    0.1000

SCF Procedure:
 Maximum # iterations   MaxIter         ....   125
 SCF integral mode      SCFMode         .... Direct
   Integral package                     .... SHARK and LIBINT hybrid scheme
 Reset frequency        DirectResetFreq ....    20
 Integral Threshold     Thresh          ....  2.500e-11 Eh
 Primitive CutOff       TCut            ....  2.500e-12 Eh

Convergence Tolerance:
 Convergence Check Mode ConvCheckMode   .... Total+1el-Energy
 Convergence forced     ConvForced      .... 0
 Energy Change          TolE            ....  1.000e-08 Eh
 1-El. energy change                    ....  1.000e-05 Eh
 Orbital Gradient       TolG            ....  1.000e-05
 Orbital Rotation angle TolX            ....  1.000e-05
 DIIS Error             TolErr          ....  5.000e-07

------------------------------
INITIAL GUESS: MODEL POTENTIAL
------------------------------
Loading Hartree-Fock densities                     ... done
Calculating cut-offs                               ... done
Initializing the effective Hamiltonian             ... done
Setting up the integral package (SHARK)            ... done
Starting the Coulomb interaction                   ... done (   0.0 sec)
Making the grid                                    ... done (   0.2 sec)
Mapping shells                                     ... done
Starting the XC term evaluation                    ... done (   0.0 sec)
  promolecular density results
     # of electrons  =     82.005310573
     EX              =    -70.958571061
     EC              =     -2.831111576
     EX+EC           =    -73.789682637
Transforming the Hamiltonian                       ... done (   0.0 sec)
Diagonalizing the Hamiltonian                      ... done (   0.0 sec)
Back transforming the eigenvectors                 ... done (   0.0 sec)
Now organizing SCF variables                       ... done
                      ------------------
                      INITIAL GUESS DONE (   0.2 sec)
                      ------------------
             **** ENERGY FILE WAS UPDATED (4nitroaniline_water_2_OPT.en.tmp) ****
Finished Guess after   1.7 sec
Maximum memory used throughout the entire GUESS-calculation: 13.3 MB
[psid00:215293] 39 more processes have sent help message help-mpi-btl-openib.txt / ib port not selected
[psid00:215293] Set MCA parameter "orte_base_help_aggregate" to 0 to see all help / error messages
[psid00:215293] 39 more processes have sent help message help-mpi-btl-openib.txt / error in device init
--------------------------------------------------------------------------
By default, for Open MPI 4.0 and later, infiniband ports on a device
are not used by default.  The intent is to use UCX for these devices.
You can override this policy by setting the btl_openib_allow_ib MCA parameter
to true.

  Local host:              psid00
  Local adapter:           mlx5_0
  Local port:              1

--------------------------------------------------------------------------
--------------------------------------------------------------------------
WARNING: There was an error initializing an OpenFabrics device.

  Local host:   psid00
  Local device: mlx5_0
--------------------------------------------------------------------------


           ************************************************************
           *        Program running with 40 parallel MPI-processes    *
           *              working on a common directory               *
           ************************************************************

-------------------------------------------------------------------------------------------
                                      ORCA LEAN-SCF
                              memory conserving SCF solver
-------------------------------------------------------------------------------------------

----------------------------------------D-I-I-S--------------------------------------------
Iteration    Energy (Eh)           Delta-E    RMSDP     MaxDP     DIISErr   Damp  Time(sec)
-------------------------------------------------------------------------------------------
               ***  Starting incremental Fock matrix formation  ***
    1    -567.4436226873401665     0.00e+00  3.97e-03  8.95e-02  3.06e-01  0.700   0.3
    2    -567.6226114562330167    -1.79e-01  2.44e-03  4.94e-02  1.30e-01  0.700   0.7
                               ***Turning on AO-DIIS***
    3    -567.6851427487870296    -6.25e-02  1.06e-03  1.66e-02  3.58e-02  0.700   1.4
    4    -567.7250384956953440    -3.99e-02  1.86e-03  2.88e-02  1.61e-02  0.000   1.4
[psid00:215422] 39 more processes have sent help message help-mpi-btl-openib.txt / ib port not selected
[psid00:215422] Set MCA parameter "orte_base_help_aggregate" to 0 to see all help / error messages
[psid00:215422] 39 more processes have sent help message help-mpi-btl-openib.txt / error in device init
    5    -567.8146576146309599    -8.96e-02  3.26e-04  6.24e-03  5.68e-03  0.000   1.4
                              *** Initializing SOSCF ***
---------------------------------------S-O-S-C-F--------------------------------------
Iteration    Energy (Eh)           Delta-E    RMSDP     MaxDP     MaxGrad    Time(sec)
--------------------------------------------------------------------------------------
    6    -567.8151171198985594    -4.60e-04  1.09e-04  2.81e-03  1.65e-03     1.0
               *** Restarting incremental Fock matrix formation ***
    7    -567.8150472781248936     6.98e-05  7.59e-05  1.50e-03  3.82e-04     0.3
    8    -567.8150462939072440     9.84e-07  3.29e-05  7.91e-04  5.38e-04     0.2
    9    -567.8150518839984215    -5.59e-06  1.58e-05  2.66e-04  8.60e-05     0.2
   10    -567.8150518068059682     7.72e-08  7.43e-06  2.27e-04  1.26e-04     0.2
   11    -567.8150521157933781    -3.09e-07  5.24e-06  1.27e-04  4.26e-05     0.2
   12    -567.8150520855160721     3.03e-08  3.52e-06  1.21e-04  8.51e-05     0.2
   13    -567.8150521385980483    -5.31e-08  2.63e-06  8.91e-05  2.48e-05     0.2
   14    -567.8150521120635403     2.65e-08  1.83e-06  5.66e-05  4.07e-05     0.2
   15    -567.8150521455713715    -3.35e-08  3.76e-07  8.87e-06  2.58e-06     0.2
   16    -567.8150521436655254     1.91e-09  2.36e-07  4.93e-06  3.62e-06     0.2
                 **** Energy Check signals convergence ****

               *****************************************************
               *                     SUCCESS                       *
               *           SCF CONVERGED AFTER  16 CYCLES          *
               *****************************************************

Recomputing exchange energy using gridx3       ... done (    0.252 sec)
Old exchange energy                            :    -14.332901814 Eh
New exchange energy                            :    -14.332848277 Eh
Exchange energy change after final integration :      0.000053537 Eh
Total energy after final integration           :   -567.814998607 Eh
             **** ENERGY FILE WAS UPDATED (4nitroaniline_water_2_OPT.en.tmp) ****

----------------
TOTAL SCF ENERGY
----------------

Total Energy       :       -567.81499860670385 Eh          -15451.03163 eV

Components:
Nuclear Repulsion  :        573.84996754918825 Eh           15615.25148 eV
Electronic Energy  :      -1141.66501969285400 Eh          -31066.28457 eV
One Electron Energy:      -1911.09450505238215 Eh          -52003.52529 eV
Two Electron Energy:        769.42948535952826 Eh           20937.24073 eV

Virial components:
Potential Energy   :      -1130.93791947430464 Eh          -30774.38533 eV
Kinetic Energy     :        563.12292086760090 Eh           15323.35370 eV
Virial Ratio       :          2.00833224428491

DFT components:
N(Alpha)           :       41.000012897642 electrons
N(Beta)            :       41.000012897642 electrons
N(Total)           :       82.000025795284 electrons
E(X)               :      -57.072611348321 Eh       
E(C)               :       -3.338140660697 Eh       
E(XC)              :      -60.410752009019 Eh       

---------------
SCF CONVERGENCE
---------------

  Last Energy change         ...   -1.9058e-09  Tolerance :   1.0000e-08
  Last MAX-Density change    ...    4.9288e-06  Tolerance :   1.0000e-07
  Last RMS-Density change    ...    2.3626e-07  Tolerance :   5.0000e-09
  Last DIIS Error            ...    1.6541e-03  Tolerance :   5.0000e-07
  Last Orbital Gradient      ...    3.6200e-06  Tolerance :   1.0000e-05
  Last Orbital Rotation      ...    2.6344e-06  Tolerance :   1.0000e-05


----------------
ORBITAL ENERGIES
----------------

  NO   OCC          E(Eh)            E(eV) 
   0   2.0000     -19.153352      -521.1892 
   1   2.0000     -19.153272      -521.1870 
   2   2.0000     -19.106721      -519.9203 
   3   2.0000     -14.551863      -395.9763 
   4   2.0000     -14.375956      -391.1897 
   5   2.0000     -10.264954      -279.3236 
   6   2.0000     -10.241714      -278.6912 
   7   2.0000     -10.221707      -278.1468 
   8   2.0000     -10.221682      -278.1461 
   9   2.0000     -10.215899      -277.9887 
  10   2.0000     -10.215669      -277.9825 
  11   2.0000      -1.213778       -33.0286 
  12   2.0000      -1.039359       -28.2824 
  13   2.0000      -0.967362       -26.3233 
  14   2.0000      -0.948075       -25.7984 
  15   2.0000      -0.875366       -23.8199 
  16   2.0000      -0.788976       -21.4691 
  17   2.0000      -0.771138       -20.9837 
  18   2.0000      -0.688172       -18.7261 
  19   2.0000      -0.643940       -17.5225 
  20   2.0000      -0.596456       -16.2304 
  21   2.0000      -0.559728       -15.2310 
  22   2.0000      -0.547045       -14.8859 
  23   2.0000      -0.534183       -14.5359 
  24   2.0000      -0.533548       -14.5186 
  25   2.0000      -0.501337       -13.6421 
  26   2.0000      -0.499015       -13.5789 
  27   2.0000      -0.468638       -12.7523 
  28   2.0000      -0.462813       -12.5938 
  29   2.0000      -0.451892       -12.2966 
  30   2.0000      -0.430842       -11.7238 
  31   2.0000      -0.415838       -11.3155 
  32   2.0000      -0.375705       -10.2235 
  33   2.0000      -0.362419        -9.8619 
  34   2.0000      -0.345371        -9.3980 
  35   2.0000      -0.305818        -8.3217 
  36   2.0000      -0.303966        -8.2713 
  37   2.0000      -0.286653        -7.8002 
  38   2.0000      -0.285611        -7.7719 
  39   2.0000      -0.281771        -7.6674 
  40   2.0000      -0.247900        -6.7457 
  41   0.0000      -0.082245        -2.2380 
  42   0.0000      -0.036658        -0.9975 
  43   0.0000       0.002767         0.0753 
  44   0.0000       0.026400         0.7184 
  45   0.0000       0.058423         1.5898 
  46   0.0000       0.064699         1.7605 
  47   0.0000       0.075535         2.0554 
  48   0.0000       0.111810         3.0425 
  49   0.0000       0.125138         3.4052 
  50   0.0000       0.133308         3.6275 
  51   0.0000       0.148709         4.0466 
*Only the first 10 virtual orbitals were printed.

                    ********************************
                    * MULLIKEN POPULATION ANALYSIS *
                    ********************************

-----------------------
MULLIKEN ATOMIC CHARGES
-----------------------
   0 O :   -0.249556
   1 O :   -0.249344
   2 N :    0.234765
   3 N :   -0.095011
   4 C :    0.169830
   5 C :    0.084212
   6 C :   -0.019113
   7 C :   -0.016314
   8 C :   -0.019984
   9 C :   -0.021717
  10 H :    0.008733
  11 H :    0.008604
  12 H :   -0.022655
  13 H :   -0.022947
  14 H :    0.131339
  15 H :    0.135040
  16 O :   -0.317063
  17 H :    0.111822
  18 H :    0.149361
Sum of atomic charges:   -0.0000000

--------------------------------
MULLIKEN REDUCED ORBITAL CHARGES
--------------------------------
  0 O s       :     3.857609  s :     3.857609
      pz      :     1.256581  p :     4.369871
      px      :     1.670692
      py      :     1.442597
      dz2     :     0.007180  d :     0.022077
      dxz     :     0.006450
      dyz     :     0.005593
      dx2y2   :     0.001421
      dxy     :     0.001433

  1 O s       :     3.857600  s :     3.857600
      pz      :     1.266175  p :     4.369651
      px      :     1.634752
      py      :     1.468725
      dz2     :     0.006989  d :     0.022092
      dxz     :     0.007097
      dyz     :     0.004986
      dx2y2   :     0.001450
      dxy     :     0.001571

  2 N s       :     3.293811  s :     3.293811
      pz      :     1.036307  p :     3.355852
      px      :     1.143626
      py      :     1.175919
      dz2     :     0.038211  d :     0.115572
      dxz     :     0.032567
      dyz     :     0.027718
      dx2y2   :     0.008749
      dxy     :     0.008327

  3 N s       :     3.334575  s :     3.334575
      pz      :     1.042102  p :     3.743093
      px      :     1.064220
      py      :     1.636772
      dz2     :     0.002720  d :     0.017343
      dxz     :     0.006156
      dyz     :     0.001661
      dx2y2   :     0.002525
      dxy     :     0.004281

  4 C s       :     2.999796  s :     2.999796
      pz      :     0.865256  p :     2.782527
      px      :     0.844308
      py      :     1.072964
      dz2     :     0.014238  d :     0.047846
      dxz     :     0.011244
      dyz     :     0.007447
      dx2y2   :     0.008041
      dxy     :     0.006877

  5 C s       :     2.973168  s :     2.973168
      pz      :     1.044169  p :     2.881805
      px      :     0.919179
      py      :     0.918456
      dz2     :     0.013235  d :     0.060815
      dxz     :     0.014794
      dyz     :     0.007514
      dx2y2   :     0.012382
      dxy     :     0.012890

  6 C s       :     3.278906  s :     3.278906
      pz      :     0.900716  p :     2.705076
      px      :     0.886341
      py      :     0.918019
      dz2     :     0.007515  d :     0.035130
      dxz     :     0.011419
      dyz     :     0.004882
      dx2y2   :     0.005296
      dxy     :     0.006019

  7 C s       :     3.277235  s :     3.277235
      pz      :     0.903081  p :     2.703984
      px      :     0.872981
      py      :     0.927923
      dz2     :     0.007526  d :     0.035094
      dxz     :     0.011484
      dyz     :     0.004829
      dx2y2   :     0.005571
      dxy     :     0.005684

  8 C s       :     3.227801  s :     3.227801
      pz      :     0.837871  p :     2.759667
      px      :     0.883471
      py      :     1.038324
      dz2     :     0.007534  d :     0.032516
      dxz     :     0.011486
      dyz     :     0.003986
      dx2y2   :     0.004847
      dxy     :     0.004664

  9 C s       :     3.231815  s :     3.231815
      pz      :     0.841804  p :     2.757448
      px      :     0.891151
      py      :     1.024493
      dz2     :     0.007371  d :     0.032455
      dxz     :     0.011340
      dyz     :     0.004133
      dx2y2   :     0.004735
      dxy     :     0.004876

 10 H s       :     0.967583  s :     0.967583
      pz      :     0.012030  p :     0.023684
      px      :     0.006843
      py      :     0.004811

 11 H s       :     0.967725  s :     0.967725
      pz      :     0.011835  p :     0.023671
      px      :     0.007582
      py      :     0.004254

 12 H s       :     0.999608  s :     0.999608
      pz      :     0.011985  p :     0.023047
      px      :     0.006091
      py      :     0.004971

 13 H s       :     0.999845  s :     0.999845
      pz      :     0.011931  p :     0.023103
      px      :     0.005471
      py      :     0.005702

 14 H s       :     0.824060  s :     0.824060
      pz      :     0.020028  p :     0.044602
      px      :     0.012028
      py      :     0.012546

 15 H s       :     0.820015  s :     0.820015
      pz      :     0.019533  p :     0.044945
      px      :     0.012447
      py      :     0.012965

 16 O s       :     3.678151  s :     3.678151
      pz      :     1.949891  p :     4.628393
      px      :     1.513645
      py      :     1.164857
      dz2     :     0.001793  d :     0.010520
      dxz     :     0.001220
      dyz     :     0.000109
      dx2y2   :     0.000353
      dxy     :     0.007044

 17 H s       :     0.815637  s :     0.815637
      pz      :     0.019398  p :     0.072541
      px      :     0.022430
      py      :     0.030713

 18 H s       :     0.781294  s :     0.781294
      pz      :     0.019155  p :     0.069346
      px      :     0.022100
      py      :     0.028090



                     *******************************
                     * LOEWDIN POPULATION ANALYSIS *
                     *******************************

----------------------
LOEWDIN ATOMIC CHARGES
----------------------
   0 O :   -0.214733
   1 O :   -0.214395
   2 N :    0.276673
   3 N :   -0.008451
   4 C :   -0.049773
   5 C :    0.036992
   6 C :    0.011063
   7 C :    0.010416
   8 C :   -0.054105
   9 C :   -0.051295
  10 H :    0.042792
  11 H :    0.042655
  12 H :    0.030382
  13 H :    0.030207
  14 H :    0.082582
  15 H :    0.082995
  16 O :   -0.168177
  17 H :    0.037450
  18 H :    0.076720

-------------------------------
LOEWDIN REDUCED ORBITAL CHARGES
-------------------------------
  0 O s       :     3.620407  s :     3.620407
      pz      :     1.393440  p :     4.551937
      px      :     1.699889
      py      :     1.458609
      dz2     :     0.015126  d :     0.042389
      dxz     :     0.013912
      dyz     :     0.009108
      dx2y2   :     0.002038
      dxy     :     0.002205

  1 O s       :     3.620231  s :     3.620231
      pz      :     1.400720  p :     4.551740
      px      :     1.673112
      py      :     1.477907
      dz2     :     0.014601  d :     0.042423
      dxz     :     0.015951
      dyz     :     0.007340
      dx2y2   :     0.002379
      dxy     :     0.002152

  2 N s       :     3.050156  s :     3.050156
      pz      :     1.124014  p :     3.430724
      px      :     1.172714
      py      :     1.133996
      dz2     :     0.088500  d :     0.242447
      dxz     :     0.071538
      dyz     :     0.050717
      dx2y2   :     0.016545
      dxy     :     0.015148

  3 N s       :     3.067200  s :     3.067200
      pz      :     1.151891  p :     3.898027
      px      :     1.144482
      py      :     1.601655
      dz2     :     0.008518  d :     0.043223
      dxz     :     0.017824
      dyz     :     0.002791
      dx2y2   :     0.005400
      dxy     :     0.008691

  4 C s       :     2.859617  s :     2.859617
      pz      :     1.093016  p :     3.068280
      px      :     0.916802
      py      :     1.058462
      dz2     :     0.038277  d :     0.121876
      dxz     :     0.032520
      dyz     :     0.016473
      dx2y2   :     0.018976
      dxy     :     0.015629

  5 C s       :     2.841651  s :     2.841651
      pz      :     1.097627  p :     2.978493
      px      :     0.956117
      py      :     0.924750
      dz2     :     0.035323  d :     0.142864
      dxz     :     0.037395
      dyz     :     0.016371
      dx2y2   :     0.025363
      dxy     :     0.028411

  6 C s       :     2.862898  s :     2.862898
      pz      :     1.051014  p :     3.034844
      px      :     1.046369
      py      :     0.937461
      dz2     :     0.021459  d :     0.091195
      dxz     :     0.031651
      dyz     :     0.010677
      dx2y2   :     0.013392
      dxy     :     0.014017

  7 C s       :     2.862744  s :     2.862744
      pz      :     1.050096  p :     3.035683
      px      :     1.047284
      py      :     0.938304
      dz2     :     0.021459  d :     0.091157
      dxz     :     0.031775
      dyz     :     0.010711
      dx2y2   :     0.013790
      dxy     :     0.013423

  8 C s       :     2.858155  s :     2.858155
      pz      :     1.025716  p :     3.109107
      px      :     1.050405
      py      :     1.032986
      dz2     :     0.021844  d :     0.086843
      dxz     :     0.032729
      dyz     :     0.008863
      dx2y2   :     0.012286
      dxy     :     0.011120

  9 C s       :     2.858225  s :     2.858225
      pz      :     1.026178  p :     3.106375
      px      :     1.048906
      py      :     1.031291
      dz2     :     0.021374  d :     0.086695
      dxz     :     0.032431
      dyz     :     0.009187
      dx2y2   :     0.012266
      dxy     :     0.011437

 10 H s       :     0.885630  s :     0.885630
      pz      :     0.035966  p :     0.071578
      px      :     0.020905
      py      :     0.014707

 11 H s       :     0.885846  s :     0.885846
      pz      :     0.035403  p :     0.071499
      px      :     0.022946
      py      :     0.013150

 12 H s       :     0.901529  s :     0.901529
      pz      :     0.034718  p :     0.068089
      px      :     0.017979
      py      :     0.015391

 13 H s       :     0.901369  s :     0.901369
      pz      :     0.034709  p :     0.068424
      px      :     0.016541
      py      :     0.017174

 14 H s       :     0.797641  s :     0.797641
      pz      :     0.051037  p :     0.119777
      px      :     0.030100
      py      :     0.038640

 15 H s       :     0.796154  s :     0.796154
      pz      :     0.049354  p :     0.120851
      px      :     0.031150
      py      :     0.040348

 16 O s       :     3.436488  s :     3.436488
      pz      :     1.886081  p :     4.712367
      px      :     1.582225
      py      :     1.244061
      dz2     :     0.003908  d :     0.019321
      dxz     :     0.000501
      dyz     :     0.000234
      dx2y2   :     0.000062
      dxy     :     0.014616

 17 H s       :     0.772617  s :     0.772617
      pz      :     0.054385  p :     0.189933
      px      :     0.063845
      py      :     0.071703

 18 H s       :     0.750509  s :     0.750509
      pz      :     0.052340  p :     0.172771
      px      :     0.061731
      py      :     0.058700



                      *****************************
                      * MAYER POPULATION ANALYSIS *
                      *****************************

  NA   - Mulliken gross atomic population
  ZA   - Total nuclear charge
  QA   - Mulliken gross atomic charge
  VA   - Mayer's total valence
  BVA  - Mayer's bonded valence
  FA   - Mayer's free valence

  ATOM       NA         ZA         QA         VA         BVA        FA
  0 O      8.2496     8.0000    -0.2496     1.9557     1.9557    -0.0000
  1 O      8.2493     8.0000    -0.2493     1.9554     1.9554    -0.0000
  2 N      6.7652     7.0000     0.2348     3.9831     3.9831     0.0000
  3 N      7.0950     7.0000    -0.0950     3.2347     3.2347     0.0000
  4 C      5.8302     6.0000     0.1698     3.7624     3.7624     0.0000
  5 C      5.9158     6.0000     0.0842     3.9799     3.9799    -0.0000
  6 C      6.0191     6.0000    -0.0191     3.8535     3.8535    -0.0000
  7 C      6.0163     6.0000    -0.0163     3.8466     3.8466    -0.0000
  8 C      6.0200     6.0000    -0.0200     3.7742     3.7742     0.0000
  9 C      6.0217     6.0000    -0.0217     3.7864     3.7864    -0.0000
 10 H      0.9913     1.0000     0.0087     1.0186     1.0186    -0.0000
 11 H      0.9914     1.0000     0.0086     1.0185     1.0185     0.0000
 12 H      1.0227     1.0000    -0.0227     0.9894     0.9894    -0.0000
 13 H      1.0229     1.0000    -0.0229     0.9907     0.9907    -0.0000
 14 H      0.8687     1.0000     0.1313     0.9916     0.9916    -0.0000
 15 H      0.8650     1.0000     0.1350     0.9900     0.9900    -0.0000
 16 O      8.3171     8.0000    -0.3171     1.9973     1.9973     0.0000
 17 H      0.8882     1.0000     0.1118     1.0950     1.0950     0.0000
 18 H      0.8506     1.0000     0.1494     1.0097     1.0097     0.0000

  Mayer bond orders larger than 0.100000
B(  0-O ,  1-O ) :   0.2720 B(  0-O ,  2-N ) :   1.5391 B(  1-O ,  2-N ) :   1.5390 
B(  2-N ,  4-C ) :   0.8763 B(  3-N ,  5-C ) :   1.1938 B(  3-N , 14-H ) :   0.9373 
B(  3-N , 15-H ) :   0.9409 B(  3-N , 17-H ) :   0.1012 B(  4-C ,  6-C ) :   1.3602 
B(  4-C ,  7-C ) :   1.3537 B(  5-C ,  8-C ) :   1.3108 B(  5-C ,  9-C ) :   1.3112 
B(  6-C ,  8-C ) :   1.3719 B(  6-C , 10-H ) :   0.9814 B(  7-C ,  9-C ) :   1.3767 
B(  7-C , 11-H ) :   0.9814 B(  8-C , 12-H ) :   0.9868 B(  9-C , 13-H ) :   0.9889 
B( 16-O , 17-H ) :   0.9776 B( 16-O , 18-H ) :   1.0039 

-------
TIMINGS
-------

Total SCF time: 0 days 0 hours 0 min 9 sec 

Total time                  ....       9.893 sec
Sum of individual times     ....       9.869 sec  ( 99.8%)

SCF preparation             ....       1.336 sec  ( 13.5%)
Fock matrix formation       ....       8.067 sec  ( 81.5%)
  Startup                   ....       0.021 sec  (  0.3% of F)
  Split-RI-J                ....       1.296 sec  ( 16.1% of F)
  Chain of spheres X        ....       3.913 sec  ( 48.5% of F)
  XC integration            ....       2.667 sec  ( 33.1% of F)
    XC Preparation          ....       0.000 sec  (  0.0% of XC)
    Basis function eval.    ....       0.160 sec  (  6.0% of XC)
    Density eval.           ....       0.065 sec  (  2.4% of XC)
    XC-Functional eval.     ....       0.040 sec  (  1.5% of XC)
    XC-Potential eval.      ....       0.083 sec  (  3.1% of XC)
Diagonalization             ....       0.000 sec  (  0.0%)
Density matrix formation    ....       0.058 sec  (  0.6%)
Total Energy calculation    ....       0.050 sec  (  0.5%)
Population analysis         ....       0.017 sec  (  0.2%)
Orbital Transformation      ....       0.045 sec  (  0.5%)
Orbital Orthonormalization  ....       0.000 sec  (  0.0%)
DIIS solution               ....       0.180 sec  (  1.8%)
SOSCF solution              ....       0.118 sec  (  1.2%)
Finished LeanSCF after   9.9 sec

Maximum memory used throughout the entire LEANSCF-calculation: 19.7 MB


-------------------------------------------------------------------------------
                          DFT DISPERSION CORRECTION                            
                                                                               
                              DFTD3 V3.1  Rev 1                                
                          USING Becke-Johnson damping                          
-------------------------------------------------------------------------------
The B3LYP functional is recognized
Active option DFTDOPT                   ...         4   

molecular C6(AA) [au] = 3866.169560 


            DFT-D V3
 parameters
 s6 scaling factor         :     1.0000 
 a1 scaling factor         :     0.3981 
 s8 scaling factor         :     1.9889 
 a2 scaling factor         :     4.4211 
 ad hoc parameters k1-k3   :    16.0000     1.3333    -4.0000 

 Edisp/kcal,au: -19.533353242889  -0.031128376489 
 E6   /kcal   :  -9.228671110 
 E8   /kcal   : -10.304682133 
 % E8         :  52.754291622 

-------------------------   ----------------
Dispersion correction           -0.031128376
-------------------------   ----------------


-------------------------   --------------------
FINAL SINGLE POINT ENERGY      -567.846126983193
-------------------------   --------------------

--------------------------------------------------------------------------
By default, for Open MPI 4.0 and later, infiniband ports on a device
are not used by default.  The intent is to use UCX for these devices.
You can override this policy by setting the btl_openib_allow_ib MCA parameter
to true.

  Local host:              psid00
  Local adapter:           mlx5_0
  Local port:              1

--------------------------------------------------------------------------
--------------------------------------------------------------------------
WARNING: There was an error initializing an OpenFabrics device.

  Local host:   psid00
  Local device: mlx5_0
--------------------------------------------------------------------------


           ************************************************************
           *        Program running with 40 parallel MPI-processes    *
           *              working on a common directory               *
           ************************************************************
------------------------------------------------------------------------------
                         ORCA SCF GRADIENT CALCULATION
------------------------------------------------------------------------------

Nuc. rep. gradient        (SHARK) ... done (  0.0 sec)
HCore & Overlap gradient  (SHARK) ... done (  0.0 sec)
Split-RIJ-J gradient      (SHARK) ... done (  0.2 sec)
COSX-gradient                     ... done (  0.8 sec)
XC gradient                       ... done (  0.2 sec)
Dispersion correction             ... done (  0.1 sec)

-------------------
DISPERSION GRADIENT
-------------------

   1   O   :    0.000444349   -0.000170457    0.000178681
   2   O   :    0.000456088   -0.000147477   -0.000171435
   3   N   :    0.000557994   -0.000196971    0.000004793
   4   N   :   -0.000492708    0.000013535   -0.000019391
   5   C   :    0.000409457   -0.000145916    0.000002924
   6   C   :   -0.000356010    0.000021927   -0.000011715
   7   C   :    0.000076691   -0.000075343    0.000562956
   8   C   :    0.000112050    0.000006744   -0.000561608
   9   C   :   -0.000170877   -0.000006896    0.000540262
  10   C   :   -0.000134111    0.000072671   -0.000549190
  11   H   :    0.000075378   -0.000054745    0.000344007
  12   H   :    0.000098356   -0.000005458   -0.000343137
  13   H   :   -0.000102802   -0.000001843    0.000347572
  14   H   :   -0.000077498    0.000056724   -0.000348990
  15   H   :   -0.000257986   -0.000034133    0.000100008
  16   H   :   -0.000267413   -0.000040142   -0.000113567
  17   O   :   -0.000168244    0.000332547    0.000020108
  18   H   :   -0.000163397    0.000235711    0.000012385
  19   H   :   -0.000039316    0.000139522    0.000005339

Difference to translation invariance:
           :   -0.0000000000   -0.0000000000   -0.0000000000

Difference to rotation invariance:
           :   -0.0000000000   -0.0000000000    0.0000000000

Norm of the Dispersion gradient    ...    0.0019113457
RMS gradient                       ...    0.0002531639
MAX gradient                       ...    0.0005629557

------------------
CARTESIAN GRADIENT
------------------

   1   O   :    0.000344452   -0.000166655    0.000227246
   2   O   :    0.000198006   -0.000071533    0.000065135
   3   N   :   -0.000323335    0.000185840   -0.000030010
   4   N   :    0.002167079    0.001338745   -0.003937610
   5   C   :    0.000000269    0.000201865    0.000226806
   6   C   :    0.000063742   -0.002387865    0.001273794
   7   C   :    0.000591580   -0.000302247    0.000216549
   8   C   :   -0.000178750    0.000297651    0.001182925
   9   C   :   -0.000410106    0.000605936   -0.000511393
  10   C   :    0.000007755   -0.001202871   -0.003938837
  11   H   :    0.000021307   -0.000025380   -0.000045405
  12   H   :   -0.000170668   -0.000181728   -0.000065648
  13   H   :    0.000043395   -0.000071679    0.000183327
  14   H   :   -0.000181163    0.001708212    0.001801876
  15   H   :   -0.000837572    0.000260845    0.003296514
  16   H   :    0.000043831   -0.001357135   -0.000421456
  17   O   :   -0.000791909   -0.006518877   -0.000300208
  18   H   :   -0.004062944    0.003617848    0.001191801
  19   H   :    0.003475031    0.004069027   -0.000415408

Difference to translation invariance:
           :   -0.0000000000   -0.0000000000   -0.0000000000

Difference to rotation invariance:
           :    0.0001109257   -0.0000504699    0.0001165596

Norm of the Cartesian gradient     ...    0.0131365046
RMS gradient                       ...    0.0017399725
MAX gradient                       ...    0.0065188772

-------
TIMINGS
-------

Total SCF gradient time     ....        1.218 sec

Densities                   ....       0.001 sec  (  0.1%)
One electron gradient       ....       0.025 sec  (  2.0%)
RI-J Coulomb gradient       ....       0.163 sec  ( 13.4%)
COSX gradient               ....       0.780 sec  ( 64.0%)
XC gradient                 ....       0.191 sec  ( 15.7%)

Maximum memory used throughout the entire SCFGRAD-calculation: 30.4 MB
[psid00:215560] 39 more processes have sent help message help-mpi-btl-openib.txt / ib port not selected
[psid00:215560] Set MCA parameter "orte_base_help_aggregate" to 0 to see all help / error messages
[psid00:215560] 39 more processes have sent help message help-mpi-btl-openib.txt / error in device init
------------------------------------------------------------------------------
                         ORCA GEOMETRY RELAXATION STEP
------------------------------------------------------------------------------

Reading the OPT-File                    .... done
Getting information on internals        .... done
Copying old internal coords+grads       .... done
Making the new internal coordinates     .... (2022 redundants) done
Validating the new internal coordinates .... (2022 redundants) done
Calculating the B-matrix                .... done
Calculating the G,G- and P matrices     .... done
Transforming gradient to internals      .... done
Projecting the internal gradient        .... done
Number of atoms                         ....  19
Number of internal coordinates          .... 107
Current Energy                          ....  -567.846126983 Eh
Current gradient norm                   ....     0.013136505 Eh/bohr
Maximum allowed component of the step   ....  0.300
Current trust radius                    ....  0.300
Evaluating the initial hessian          ....  (Almloef) done
Projecting the Hessian                  .... done
Forming the augmented Hessian           .... done
Diagonalizing the augmented Hessian     .... done
[...]

  4 C s       :     2.859290  s :     2.859290
      pz      :     1.092898  p :     3.070107
      px      :     0.914905
      py      :     1.062304
      dz2     :     0.038330  d :     0.121963
      dxz     :     0.032993
      dyz     :     0.016084
      dx2y2   :     0.019620
      dxy     :     0.014935

  5 C s       :     2.840294  s :     2.840294
      pz      :     1.097947  p :     2.977726
      px      :     0.956165
      py      :     0.923614
      dz2     :     0.035448  d :     0.144301
      dxz     :     0.037706
      dyz     :     0.016149
      dx2y2   :     0.025715
      dxy     :     0.029281

  6 C s       :     2.862697  s :     2.862697
      pz      :     1.051055  p :     3.035141
      px      :     1.048754
      py      :     0.935332
      dz2     :     0.021411  d :     0.091313
      dxz     :     0.032111
      dyz     :     0.010162
      dx2y2   :     0.013468
      dxy     :     0.014161

  7 C s       :     2.862720  s :     2.862720
      pz      :     1.051004  p :     3.035217
      px      :     1.048799
      py      :     0.935414
      dz2     :     0.021677  d :     0.091296
      dxz     :     0.032005
      dyz     :     0.010501
      dx2y2   :     0.013644
      dxy     :     0.013469

  8 C s       :     2.857850  s :     2.857850
      pz      :     1.024521  p :     3.109487
      px      :     1.050270
      py      :     1.034697
      dz2     :     0.021883  d :     0.086689
      dxz     :     0.033140
      dyz     :     0.008497
      dx2y2   :     0.012230
      dxy     :     0.010939

  9 C s       :     2.857827  s :     2.857827
      pz      :     1.024245  p :     3.110013
      px      :     1.050348
      py      :     1.035420
      dz2     :     0.021811  d :     0.086704
      dxz     :     0.033116
      dyz     :     0.008210
      dx2y2   :     0.012341
      dxy     :     0.011227

 10 H s       :     0.885801  s :     0.885801
      pz      :     0.036329  p :     0.071507
      px      :     0.020938
      py      :     0.014240

 11 H s       :     0.885885  s :     0.885885
      pz      :     0.035212  p :     0.071508
      px      :     0.023041
      py      :     0.013254

 12 H s       :     0.901405  s :     0.901405
      pz      :     0.034545  p :     0.068173
      px      :     0.018087
      py      :     0.015542

 13 H s       :     0.901922  s :     0.901922
      pz      :     0.035399  p :     0.068153
      px      :     0.016371
      py      :     0.016383

 14 H s       :     0.794941  s :     0.794941
      pz      :     0.049092  p :     0.121567
      px      :     0.032418
      py      :     0.040056

 15 H s       :     0.795714  s :     0.795714
      pz      :     0.052677  p :     0.121464
      px      :     0.029480
      py      :     0.039308

 16 O s       :     3.435217  s :     3.435217
      pz      :     1.882615  p :     4.717000
      px      :     1.584152
      py      :     1.250233
      dz2     :     0.003875  d :     0.019147
      dxz     :     0.000524
      dyz     :     0.000206
      dx2y2   :     0.000057
      dxy     :     0.014487

 17 H s       :     0.770242  s :     0.770242
      pz      :     0.053535  p :     0.192613
      px      :     0.063815
      py      :     0.075263

 18 H s       :     0.751708  s :     0.751708
      pz      :     0.053277  p :     0.175904
      px      :     0.061693
      py      :     0.060934



                      *****************************
                      * MAYER POPULATION ANALYSIS *
                      *****************************

  NA   - Mulliken gross atomic population
  ZA   - Total nuclear charge
  QA   - Mulliken gross atomic charge
  VA   - Mayer's total valence
  BVA  - Mayer's bonded valence
  FA   - Mayer's free valence

  ATOM       NA         ZA         QA         VA         BVA        FA
  0 O      8.2502     8.0000    -0.2502     1.9550     1.9550    -0.0000
  1 O      8.2503     8.0000    -0.2503     1.9548     1.9548     0.0000
  2 N      6.7648     7.0000     0.2352     3.9837     3.9837    -0.0000
  3 N      7.0898     7.0000    -0.0898     3.2444     3.2444     0.0000
  4 C      5.8314     6.0000     0.1686     3.7610     3.7610    -0.0000
  5 C      5.9074     6.0000     0.0926     3.9754     3.9754     0.0000
  6 C      6.0182     6.0000    -0.0182     3.8524     3.8524    -0.0000
  7 C      6.0179     6.0000    -0.0179     3.8533     3.8533     0.0000
  8 C      6.0226     6.0000    -0.0226     3.7738     3.7738     0.0000
  9 C      6.0237     6.0000    -0.0237     3.7738     3.7738     0.0000
 10 H      0.9917     1.0000     0.0083     1.0185     1.0185    -0.0000
 11 H      0.9920     1.0000     0.0080     1.0185     1.0185     0.0000
 12 H      1.0229     1.0000    -0.0229     0.9897     0.9897    -0.0000
 13 H      1.0240     1.0000    -0.0240     0.9895     0.9895     0.0000
 14 H      0.8663     1.0000     0.1337     0.9935     0.9935     0.0000
 15 H      0.8679     1.0000     0.1321     0.9934     0.9934    -0.0000
 16 O      8.3221     8.0000    -0.3221     1.9923     1.9923     0.0000
 17 H      0.8841     1.0000     0.1159     1.0903     1.0903    -0.0000
 18 H      0.8526     1.0000     0.1474     1.0123     1.0123     0.0000

  Mayer bond orders larger than 0.100000
B(  0-O ,  1-O ) :   0.2713 B(  0-O ,  2-N ) :   1.5386 B(  1-O ,  2-N ) :   1.5385 
B(  2-N ,  4-C ) :   0.8778 B(  3-N ,  5-C ) :   1.2009 B(  3-N , 14-H ) :   0.9388 
B(  3-N , 15-H ) :   0.9409 B(  3-N , 17-H ) :   0.1058 B(  4-C ,  6-C ) :   1.3551 
B(  4-C ,  7-C ) :   1.3556 B(  5-C ,  8-C ) :   1.3049 B(  5-C ,  9-C ) :   1.3045 
B(  6-C ,  8-C ) :   1.3779 B(  6-C , 10-H ) :   0.9813 B(  7-C ,  9-C ) :   1.3781 
B(  7-C , 11-H ) :   0.9812 B(  8-C , 12-H ) :   0.9882 B(  9-C , 13-H ) :   0.9882 
B( 16-O , 17-H ) :   0.9689 B( 16-O , 18-H ) :   1.0047 

-------
TIMINGS
-------

Total SCF time: 0 days 0 hours 0 min 2 sec 

Total time                  ....       2.998 sec
Sum of individual times     ....       2.952 sec  ( 98.4%)

SCF preparation             ....       1.317 sec  ( 43.9%)
Fock matrix formation       ....       1.473 sec  ( 49.1%)
  Startup                   ....       0.010 sec  (  0.7% of F)
  Split-RI-J                ....       0.138 sec  (  9.3% of F)
  Chain of spheres X        ....       1.011 sec  ( 68.6% of F)
  XC integration            ....       0.284 sec  ( 19.3% of F)
    Basis function eval.    ....       0.057 sec  ( 20.0% of XC)
    Density eval.           ....       0.023 sec  (  8.3% of XC)
    XC-Functional eval.     ....       0.015 sec  (  5.5% of XC)
    XC-Potential eval.      ....       0.028 sec  (  9.7% of XC)
Diagonalization             ....       0.000 sec  (  0.0%)
Density matrix formation    ....       0.015 sec  (  0.5%)
Total Energy calculation    ....       0.016 sec  (  0.5%)
Population analysis         ....       0.044 sec  (  1.5%)
Orbital Transformation      ....       0.012 sec  (  0.4%)
Orbital Orthonormalization  ....       0.000 sec  (  0.0%)
DIIS solution               ....       0.017 sec  (  0.6%)
SOSCF solution              ....       0.059 sec  (  2.0%)
Finished LeanSCF after   3.0 sec

Maximum memory used throughout the entire LEANSCF-calculation: 21.3 MB
[psid00:224576] 39 more processes have sent help message help-mpi-btl-openib.txt / ib port not selected
[psid00:224576] Set MCA parameter "orte_base_help_aggregate" to 0 to see all help / error messages
[psid00:224576] 39 more processes have sent help message help-mpi-btl-openib.txt / error in device init


-------------------------------------------------------------------------------
                          DFT DISPERSION CORRECTION                            
                                                                               
                              DFTD3 V3.1  Rev 1                                
                          USING Becke-Johnson damping                          
-------------------------------------------------------------------------------
The B3LYP functional is recognized
Active option DFTDOPT                   ...         4   

molecular C6(AA) [au] = 3866.013090 


            DFT-D V3
 parameters
 s6 scaling factor         :     1.0000 
 a1 scaling factor         :     0.3981 
 s8 scaling factor         :     1.9889 
 a2 scaling factor         :     4.4211 
 ad hoc parameters k1-k3   :    16.0000     1.3333    -4.0000 

 Edisp/kcal,au: -19.679881377385  -0.031361883910 
 E6   /kcal   :  -9.302941941 
 E8   /kcal   : -10.376939437 
 % E8         :  52.728668622 

-------------------------   ----------------
Dispersion correction           -0.031361884
-------------------------   ----------------


-------------------------   --------------------
FINAL SINGLE POINT ENERGY      -567.846981004698
-------------------------   --------------------

                                *** OPTIMIZATION RUN DONE ***

--------------------------------------------------------------------------
By default, for Open MPI 4.0 and later, infiniband ports on a device
are not used by default.  The intent is to use UCX for these devices.
You can override this policy by setting the btl_openib_allow_ib MCA parameter
to true.

  Local host:              psid00
  Local adapter:           mlx5_0
  Local port:              1

--------------------------------------------------------------------------
--------------------------------------------------------------------------
WARNING: There was an error initializing an OpenFabrics device.

  Local host:   psid00
  Local device: mlx5_0
--------------------------------------------------------------------------


           ************************************************************
           *        Program running with 40 parallel MPI-processes    *
           *              working on a common directory               *
           ************************************************************

------------------------------------------------------------------------------
                              ORCA PROPERTY CALCULATIONS
------------------------------------------------------------------------------

GBWName                                 ... 4nitroaniline_water_2_OPT.gbw
Number of atoms                         ...     19
Number of basis functions               ...    194
Max core memory                         ...   3000 MB

Electric properties:
Dipole moment                           ... YES
Quadrupole moment                       ...  NO
Static polarizability (Dipole/Dipole)   ...  NO
Static polarizability (Dipole/Quad.)    ...  NO
Static polarizability (Quad./Quad.)     ...  NO
Static polarizability (Velocity)        ...  NO

Atomic electric properties:
Dipole moment                           ...  NO
Quadrupole moment                       ...  NO
Static polarizability                   ...  NO

Choice of electric origin               ... Center of mass
Position of electric origin             ...    -0.671882     1.816586     0.508007

General magnetic properties:
Magnetizability                         ...  NO

EPR properties:
g-Tensor (aka g-matrix)                 ...  NO
Zero-Field splitting spin-orbit         ...  NO
Zero-field splitting spin-spin          ...  NO
Hyperfine couplings                     ...  NO (   0 nuclei)
Quadrupole couplings                    ...  NO (   0 nuclei)
Contact density                         ...  NO (   0 nuclei)

NMR properties:
Chemical shifts                         ...  NO (   0 nuclei)
Spin-rotation constants                 ...  NO (   0 nuclei)
Spin-spin couplings                     ...  NO (   0 nuclei,    0 pairs)

Choice of magnetic origin               ... GIAO
Position of magnetic origin             ...     0.000000     0.000000     0.000000

Properties with geometric perturbations:
SCF Hessian                             ...  NO
IR spectrum                             ...  NO
VCD spectrum                            ...  NO
X-ray spectroscopy properties:
SCF XES/XAS/RIXS spectra                ...  NO


-------------
DIPOLE MOMENT
-------------

Method             : SCF
Type of density    : Electron Density
Multiplicity       :   1
Irrep              :   0
Energy             :  -567.8156191207882557 Eh
Relativity type    : 
Basis              : AO
                                X                 Y                 Z
Electronic contribution:     11.658523280      -6.451206977      -0.094315917
Nuclear contribution   :    -13.280070489       6.676795481      -0.042531360
                        -----------------------------------------
Total Dipole Moment    :     -1.621547209       0.225588504      -0.136847277
                        -----------------------------------------
Magnitude (a.u.)       :      1.642873307
Magnitude (Debye)      :      4.175852085



--------------------
Rotational spectrum 
--------------------
 
Rotational constants in cm-1:             0.093852             0.014540             0.013615 
Rotational constants in MHz :          2813.612303           435.896466           408.169691 

Dipole components along the rotational axes: 
x,y,z [a.u.] :     1.524011    -0.148905     0.595189 
x,y,z [Debye]:     3.873729    -0.378485     1.512849 

 

Dipole moment calculation done in   0.0 sec 

Maximum memory used throughout the entire PROP-calculation: 10.2 MB
[psid00:224706] 39 more processes have sent help message help-mpi-btl-openib.txt / ib port not selected
[psid00:224706] Set MCA parameter "orte_base_help_aggregate" to 0 to see all help / error messages
[psid00:224706] 39 more processes have sent help message help-mpi-btl-openib.txt / error in device init
--------------------------------------------------------------------------
By default, for Open MPI 4.0 and later, infiniband ports on a device
are not used by default.  The intent is to use UCX for these devices.
You can override this policy by setting the btl_openib_allow_ib MCA parameter
to true.

  Local host:              psid00
  Local adapter:           mlx5_0
  Local port:              1

--------------------------------------------------------------------------
--------------------------------------------------------------------------
WARNING: There was an error initializing an OpenFabrics device.

  Local host:   psid00
  Local device: mlx5_0
--------------------------------------------------------------------------
[psid00:224836] 39 more processes have sent help message help-mpi-btl-openib.txt / ib port not selected
[psid00:224836] Set MCA parameter "orte_base_help_aggregate" to 0 to see all help / error messages
[psid00:224836] 39 more processes have sent help message help-mpi-btl-openib.txt / error in device init

--------------------------------
SUGGESTED CITATIONS FOR THIS RUN
--------------------------------

Below you find a list of papers that are relevant to this ORCA run
We neither can nor want to force you to cite these papers, but we appreciate if you do
You receive ORCA, which is the product of decades of hard work by many enthusiastic individuals, for free
The only thing we kindly ask in return is that you cite our papers,
We deeply appreciate it, if you show your appreciation for ORCA by not just citing the generic ORCA reference.

Please note that relegating all ORCA citations to the supporting information does *not* help us.
SI sections are not indexed - citations you put there will not count into any citation statistics
But we need these citations in order to attract the funding resources that allow us to do what we are doing

Therefore, if you are a happy ORCA user, please consider citing a few of the papers listed below in the main body of your paper

In addition to the list printed below, the program has created the file 4nitroaniline_water_2_OPT.bibtex that contains the list in bibtex format
You can import this file easily into all common literature databanks and citation aid programs


List of essential papers. We consider these as the minimum necessary citations

  1. Neese,F.
     Software update: the ORCA program system, version 5.0
     WIRES Comput. Molec. Sci., 2022 12(1)e1606
     doi.org/10.1002/wcms.1606

List of papers to cite with high priority. The work reported in these papers was absolutely
necessary for this run to complete.
Our perspective: the developers of density functionals and basis sets usually get cited in chemistry papers
Good! But without the algorithms to do something with them, the functionals or basis sets would not do anything.
Hence, in our opinion, the algorithm design and method developments papers are equally worthy of getting cited

  1. Neese,F.
     An improvement of the resolution of the identity approximation for the formation of the Coulomb matrix
     J. Comp. Chem., 2003 24(14)1740-1747
     doi.org/10.1002/jcc.10318
  2. Neese,F.; Wennmohs,F.; Hansen,A.; Becker,U.
     Efficient, approximate and parallel Hartree-Fock and hybrid DFT calculations. A 'chain-of-spheres' algorithm for the Hartree-Fock exchange
     Chem. Phys., 2009 356(1-3)98-109
     doi.org/10.1016/j.chemphys.2008.10.036
  3. Helmich-Paris,B.; de Souza,B.; Neese,F.; Izsák,R.
     An improved chain of spheres for exchange algorithm
     J. Chem. Phys., 2021 155 104109
     doi.org/doi: 10.1063/5.0058766.
  4. Neese,F.
     The SHARK Integral Generation and Digestion System
     J. Comp. Chem., 2022  1-16
     doi.org/10.1002/jcc.26942
  5. Grimme,S.; Antony,J.; Ehrlich,S.; Krieg,H.
     A consistent and accurate ab initio parametrization of density functional dispersion correction (DFT-D) for the 94 elements H-Pu
     J. Chem. Phys., 2010 132 154104
     doi.org/10.1063/1.3382344
  6. Grimme,S.; Ehrlich,S.; Goerigk,L.
     Effect of the damping function in dispersion corrected density functional theory
     J. Comput. Chem., 2011 32(7)1456-1465
     doi.org/10.1002/jcc.21759

List of suggested additional citations. These are papers that are important in the 'surrounding' of 
of this run, or papers that preceded the highly important papers. If you like your results we are grateful for a citation.

  1. Izsak,R.; Neese,F.
     An overlap fitted chain of spheres exchange method
     J. Chem. Phys., 2011 135 144105
     doi.org/10.1063/1.3646921
  2. Izsak,R.; Hansen,A.; Neese,F.
     The resolution of identity and chain of spheres approximations for the LPNO-CCSD singles Fock term
     Molec. Phys., 2012 110 2413-2417
     doi.org/10.1080/00268976.2012.687466
  3. Neese,F.
     The ORCA program system
     WIRES Comput. Molec. Sci., 2012 2(1)73-78
     doi.org/10.1002/wcms.81
  4. Izsak,R.; Neese,F.; Klopper,W.
     Robust fitting techniques in the chain of spheres approximation to the Fock exchange: The role of the complementary space
     J. Chem. Phys., 2013 139 
     doi.org/10.1063/1.4819264
  5. Neese,F.
     Software update: the ORCA program system, version 4.0
     WIRES Comput. Molec. Sci., 2018 8(1)1-6
     doi.org/10.1002/wcms.1327
  6. Neese,F.; Wennmohs,F.; Becker,U.; Riplinger,C.
     The ORCA quantum chemistry program package
     J. Chem. Phys., 2020 152 Art. No. L224108
     doi.org/10.1063/5.0004608

List of optional additional citations

  1. Neese,F.
     Approximate second-order SCF convergence for spin unrestricted wavefunctions
     Chem. Phys. Lett., 2000 325(1-3)93-98
     doi.org/10.1016/s0009-2614(00)00662-x

Timings for individual modules:

Sum of individual times          ...      164.567 sec (=   2.743 min)
Startup calculation              ...       40.587 sec (=   0.676 min)  24.7 %
SCF iterations                   ...       84.500 sec (=   1.408 min)  51.3 %
Property calculations            ...        1.441 sec (=   0.024 min)   0.9 %
SCF Gradient evaluation          ...       37.917 sec (=   0.632 min)  23.0 %
Geometry relaxation              ...        0.122 sec (=   0.002 min)   0.1 %
                             ****ORCA TERMINATED NORMALLY****
TOTAL RUN TIME: 0 days 0 hours 3 minutes 5 seconds 954 msec
