
                                 *****************
                                 * O   R   C   A *
                                 *****************

                                            #,                                       
                                            ###                                      
                                            ####                                     
                                            #####                                    
                                            ######                                   
                                           ########,                                 
                                     ,,################,,,,,                         
                               ,,#################################,,                 
                          ,,##########################################,,             
                       ,#########################################, ''#####,          
                    ,#############################################,,   '####,        
                  ,##################################################,,,,####,       
                ,###########''''           ''''###############################       
              ,#####''   ,,,,##########,,,,          '''####'''          '####       
            ,##' ,,,,###########################,,,                        '##       
           ' ,,###''''                  '''############,,,                           
         ,,##''                                '''############,,,,        ,,,,,,###''
      ,#''                                            '''#######################'''  
     '                                                          ''''####''''         
             ,#######,   #######,   ,#######,      ##                                
            ,#'     '#,  ##    ##  ,#'     '#,    #''#        ,####,   ,####,        
            ##       ##  ##   ,#'  ##            #'  '#       #'       #'  '#        
            ##       ##  #######   ##           ,######,      #####,   #    #        
            '#,     ,#'  ##    ##  '#,     ,#' ,#      #,     #,   #   #,  ,#        
             '#######'   ##     ##  '#######'  #'      '#     '####' # '####'        



                #########################################################
                #                        -***-                          #
                #          Department of theory and spectroscopy        #
                #                                                       #
                #                      Frank Neese                      #
                #                                                       #
                #     Directorship, Architecture, Infrastructure        #
                #                    SHARK, DRIVERS                     #
                #        Core code/Algorithms in most modules           #
                #                                                       #
                #        Max Planck Institute fuer Kohlenforschung      #
                #                Kaiser Wilhelm Platz 1                 #
                #                 D-45470 Muelheim/Ruhr                 #
                #                      Germany                          #
                #                                                       #
                #                  All rights reserved                  #
                #                        -***-                          #
                #########################################################


                         Program Version 6.0.1  -  RELEASE   -


 With contributions from (in alphabetic order):
[Max-Planck-Institut fuer Kohlenforschung]                               
  Daniel Aravena         : Magnetic Suceptibility                        
  Michael Atanasov       : Ab Initio Ligand Field Theory (pilot matlab implementation)
  Alexander A. Auer      : GIAO ZORA, VPT2 properties, NMR spectrum      
  Ute Becker             : All parallelization in ORCA, NUMFREQ, NUMCALC 
  Giovanni Bistoni       : ED, misc. LED, open-shell LED, HFLD           
  Martin Brehm           : Molecular dynamics                            
  Dmytro Bykov           : pre 5.0 version of the SCF Hessian            
  Marcos Casanova-Páez   : Triplet and SCS-CIS(D). UHF-(DLPNO)-IP/EA/STEOM-CCSD. UHF-CVS-IP/STEOM-CCSD   
  Vijay G. Chilkuri      : MRCI spin determinant printing, contributions to CSF-ICE 
  Pauline Colinet        : FMM embedding                                 
  Dipayan Datta          : RHF DLPNO-CCSD density                        
  Achintya Kumar Dutta   : EOM-CC, STEOM-CC                              
  Nicolas Foglia         : Exact transition moments, OPA infrastructure, MCD improvements    
  Dmitry Ganyushin       : Spin-Orbit,Spin-Spin,Magnetic field MRCI      
  Miquel Garcia-Rates    : C-PCM and meta-GGA Hessian, CCSD/C-PCM, Gaussian charge scheme 
  Tiago L. C. Gouveia    : GS-ROHF, GS-ROCIS                             
  Yang Guo               : DLPNO-NEVPT2, F12-NEVPT2, CIM, IAO-localization        
  Andreas Hansen         : Spin unrestricted coupled pair/coupled cluster methods 
  Ingolf Harden          : AUTO-CI MPn and infrastructure                
  Benjamin Helmich-Paris : MC-RPA, TRAH-(SCF,CASSCF), AVAS, COSX integrals, SCF dyn. polar. 
  Lee Huntington         : MR-EOM, pCC                                   
  Robert Izsak           : Overlap fitted RIJCOSX, COSX-SCS-MP3, EOM     
  Riya Kayal             : Wick's Theorem for AUTO-CI, AUTO-CI UHF-CCSDT 
  Emily Kempfer          : AUTO-CI, RHF CISDT and CCSDT                  
  Christian Kollmar      : KDIIS, OOCD, Brueckner-CCSD(T), CCSD density, CASPT2, CASPT2-K, improved NEVPT2 
  Axel Koslowski         : Symmetry handling                             
  Simone Kossmann        : meta-GGA functionals, TD-DFT gradient, OOMP2, (MP2 Hessian; deprecated post 5.0) 
  Lucas Lang             : DCDCAS                                        
  Marvin Lechner         : AUTO-CI (C++ implementation), FIC-MRCC        
  Spencer Leger          : CASSCF response                               
  Dagmar Lenk            : GEPOL surface, SMD, ORCA-2-JSON               
  Dimitrios Liakos       : Extrapolation schemes; Compound Job, initial MDCI parallelization 
  Dimitrios Manganas     : Further ROCIS development; embedding schemes. LFT, Crystal Embedding 
  Dimitrios Pantazis     : SARC Basis sets                               
  Anastasios Papadopoulos: AUTO-CI, single reference methods and gradients 
  Taras Petrenko         : pre 6.0 DFT Hessian and TD-DFT gradient, (ASA, deprecated), ECA, 1-Electron XAS/XES, NRVS 
  Peter Pinski           : DLPNO-MP2, DLPNO-MP2 Gradient                 
  Christoph Reimann      : Effective Core Potentials                     
  Marius Retegan         : Local ZFS, SOC                                
  Christoph Riplinger    : Optimizer, TS searches, QM/MM, DLPNO-CCSD(T), (RO)-DLPNO pert. Triples 
  Michael Roemelt        : Original ROCIS implementation                 
  Masaaki Saitow         : Open-shell DLPNO-CCSD energy and density      
  Barbara Sandhoefer     : DKH picture change effects                    
  Kantharuban Sivalingam : CASSCF convergence/infrastructure, NEVPT2 and variants, FIC-MRCI 
  Bernardo de Souza      : ESD, SOC TD-DFT                               
  Georgi L. Stoychev     : AutoAux, RI-MP2 NMR, DLPNO-MP2 response, X2C  
  Van Anh Tran           : RI-MP2 g-tensors                              
  Willem Van den Heuvel  : Paramagnetic NMR                              
  Zikuan Wang            : NOTCH, Electric field optimization            
  Frank Wennmohs         : Technical directorship and infrastructure     
  Hang Xu                : AUTO-CI-Response properties                   
                                                                         
[FACCTs GmbH]                                                            
  Markus Bursch, Miquel Garcia-Rates, Christoph Riplinger, Bernardo de Souza, Georgi L. Stoychev 
                                                                 
  APM, Basis sets (HGBS, AHGBS, def-TZVP (Ac-Lr), def2-XVPD (La-Lu)), CI-OPT, improved COSX, DLPNO-Multilevel,           
  DOCKER, DRACO, updates on ESD, GOAT, IRC, LR-CPCM, MBIS, meta-GGA TD-DFT gradient, ML-optimized integration grids, 
  MM, NACMEs, nearIR, NEB, NEB-TS, NL-DFT gradient (VV10), 2- and 3-layer-ONIOM, interface openCOSMO-RS, QMMM,   
  Crystal-QMMM, SF, symmetry and pop. for TD-DFT, r2SCAN hybrids, SOLVATOR                                   
                                                                         
[Other institutions]                                                     
  V. Asgeirsson          : NEB                                           
  Christoph Bannwarth    : sTDA-DFT, sTD-DFT, PBEh-3c, B97-3c, D3        
  Sebastian Ehlert       : rSCAN, r2SCAN, r2SCAN-3c, D4, dhf basis sets  
  Marvin Friede          : D4 for Fr, Ra, Ac-Lr                          
  Lars Goerigk           : TD-DFT with DH, B97 family of functionals     
  Stefan Grimme          : VdW corrections, initial TS optimization, DFT functionals, gCP, sTDA/sTD-DF 
  Waldemar Hujo          : DFT-NL                                        
  H. Jonsson             : NEB                                           
  Holger Kruse           : gCP                                           
  Marcel Mueller         : wB97X-3c, vDZP basis set                      
  Hagen Neugebauer       : wr2SCAN                                       
  Tobias Risthaus        : range-separated hybrid DFT                    
  Lukas Wittmann         : regularized MP2, r2SCAN double-hybrids, wr2SCAN        
                                                                         
We gratefully acknowledge several colleagues who have allowed us to      
interface, adapt or use parts of their codes:                            
  Ed Valeev, F. Pavosevic, A. Kumar             : LibInt (2-el integral package), F12 methods 
  Garnet Chan, S. Sharma, J. Yang, R. Olivares  : DMRG                   
  Ulf Ekstrom                                   : XCFun DFT Library      
  Mihaly Kallay                                 : mrcc  (arbitrary order and MRCC methods)
  Frank Weinhold                                : gennbo (NPA and NBO analysis)           
  Simon Mueller                                 : openCOSMO-RS                            
  Christopher J. Cramer and Donald G. Truhlar   : smd solvation model                     
  S Lehtola, MJT Oliveira, MAL Marques          : LibXC Library                           
  Liviu Ungur et al                             : ANISO software                          


 Your calculation uses the libint2 library for the computation of 2-el integrals
 For citations please refer to: http://libint.valeyev.net

 Your ORCA version has been built with support for libXC version: 6.2.2
 For citations please refer to: https://libxc.gitlab.io

 This ORCA versions uses:
   CBLAS   interface :  Fast vector & matrix operations
   LAPACKE interface :  Fast linear algebra routines
   SCALAPACK package :  Parallel linear algebra routines
   Shared memory     :  Shared parallel matrices
   BLAS/LAPACK       :  OpenBLAS 0.3.27  USE64BITINT DYNAMIC_ARCH NO_AFFINITY SkylakeX SINGLE_THREADED
        Core in use  :  SkylakeX
   Copyright (c) 2011-2014, The OpenBLAS Project


NOTE: MaxCore=5000 MB was set to SCF,MP2,MDCI,CIPSI,MRCI and CIS
      => If you want to overwrite this, your respective input block should be placed after the MaxCore statement
Your calculation utilizes the atom-pairwise dispersion correction
with the Becke-Johnson damping scheme (D3BJ)


Warning: RI is on but no J-basis has been assigned. Assigning Def2/J (nothing to worry about!)
================================================================================

----- Orbital basis set information -----
Your calculation utilizes the basis: def2-TZVP
   F. Weigend and R. Ahlrichs, Phys. Chem. Chem. Phys. 7, 3297 (2005).

----- AuxJ basis set information -----
Your calculation utilizes the auxiliary basis: def2/J
   F. Weigend, Phys. Chem. Chem. Phys. 8, 1057 (2006).

================================================================================
                                        WARNINGS
                       Please study these warnings very carefully!
================================================================================


================================================================================
                                       INPUT FILE
================================================================================
NAME = zinc_hydrate_3.inp
|  1> ! TPSSh def2-TZVP SP SlowConv ALLPOP KEEPDENS D3BJ CPCM(WATER)
|  2> 
|  3> %maxcore 5000
|  4> 
|  5> %pal
|  6> nprocs 20
|  7> end
|  8> 
|  9> * xyz 2 1
| 10>   Zn          1.03396256473772      0.90470833644148      1.14887272483556
| 11>   H          -0.97162268290471     -0.03057422186550     -0.36945142248513
| 12>   O          -0.83992945767029      0.74943795209993      0.19017078840979
| 13>   H          -1.59593147305779      0.77670628952919      0.79623993340945
| 14>   H           3.66813572326755      1.05096162928264      1.45064210294826
| 15>   O           2.92730962551606      1.03396168288918      2.07555841676761
| 16>   H           3.06010067983568      1.78761903366549      2.67012149549641
| 17>   H           0.60352426126900      2.96429496286128     -0.46673018983176
| 18>   O           1.15294809991280      2.84783200568905      0.32336055241634
| 19>   H           2.03919886577128      3.15629026704713      0.08149812747777
| 20>   H           0.22553765204316     -1.58093244956633      1.73986514304505
| 21>   O           0.78646041357932     -0.91999579401580      2.17320559903028
| 22>   H           1.61603355147471     -1.37276883144666      2.38855590591962
| 23>   H           0.11757397566324      1.36026446325989      3.61778464961340
| 24>   O           0.02092980109095      1.80736357267173      2.76367169397468
| 25>   H           0.24261912131329      2.73790804616623      2.91747290506223
| 26>   H           1.83229901901631     -0.93369482665438     -0.62568803883065
| 27>   O           2.04499915390427      0.00013487081151     -0.47607531100219
| 28>   H           1.92852110523736      0.43994301113387     -1.33206507625683
| 29> *
| 30> 
| 31>                          ****END OF INPUT****
================================================================================

                       ****************************
                       * Single Point Calculation *
                       ****************************

---------------------------------
CARTESIAN COORDINATES (ANGSTROEM)
---------------------------------
  Zn     1.033963    0.904708    1.148873
  H     -0.971623   -0.030574   -0.369451
  O     -0.839929    0.749438    0.190171
  H     -1.595931    0.776706    0.796240
  H      3.668136    1.050962    1.450642
  O      2.927310    1.033962    2.075558
  H      3.060101    1.787619    2.670121
  H      0.603524    2.964295   -0.466730
  O      1.152948    2.847832    0.323361
  H      2.039199    3.156290    0.081498
  H      0.225538   -1.580932    1.739865
  O      0.786460   -0.919996    2.173206
  H      1.616034   -1.372769    2.388556
  H      0.117574    1.360264    3.617785
  O      0.020930    1.807364    2.763672
  H      0.242619    2.737908    2.917473
  H      1.832299   -0.933695   -0.625688
  O      2.044999    0.000135   -0.476075
  H      1.928521    0.439943   -1.332065

----------------------------
CARTESIAN COORDINATES (A.U.)
----------------------------
  NO LB      ZA    FRAG     MASS         X           Y           Z
   0 Zn   30.0000    0    65.380    1.953906    1.709651    2.171055
   1 H     1.0000    0     1.008   -1.836101   -0.057777   -0.698162
   2 O     8.0000    0    15.999   -1.587237    1.416232    0.359371
   3 H     1.0000    0     1.008   -3.015873    1.467762    1.504675
   4 H     1.0000    0     1.008    6.931772    1.986030    2.741316
   5 O     8.0000    0    15.999    5.531814    1.953904    3.922237
   6 H     1.0000    0     1.008    5.782752    3.378110    5.045798
   7 H     1.0000    0     1.008    1.140496    5.601706   -0.881992
   8 O     8.0000    0    15.999    2.178756    5.381623    0.611063
   9 H     1.0000    0     1.008    3.853527    5.964524    0.154009
  10 H     1.0000    0     1.008    0.426204   -2.987529    3.287869
  11 O     8.0000    0    15.999    1.486195   -1.738540    4.106763
  12 H     1.0000    0     1.008    3.053861   -2.594157    4.513717
  13 H     1.0000    0     1.008    0.222183    2.570527    6.836622
  14 O     8.0000    0    15.999    0.039552    3.415422    5.222583
  15 H     1.0000    0     1.008    0.458484    5.173896    5.513225
  16 H     1.0000    0     1.008    3.462543   -1.764428   -1.182379
  17 O     8.0000    0    15.999    3.864488    0.000255   -0.899652
  18 H     1.0000    0     1.008    3.644377    0.831372   -2.517238

--------------------------------
INTERNAL COORDINATES (ANGSTROEM)
--------------------------------
 Zn     0   0   0     0.000000000000     0.00000000     0.00000000
 H      1   0   0     2.683735058789     0.00000000     0.00000000
 O      2   1   0     0.968988707898    44.85948373     0.00000000
 H      3   2   1     0.969330912546   106.12574802   232.10696425
 H      1   2   3     2.655432735422   145.56980821   211.54784923
 O      5   1   2     0.969346534819    46.69847692   210.87324570
 H      6   5   1     0.969091389433   106.09108871   231.15507973
 H      1   2   3     2.652799838416    78.74125434   304.27369874
 O      8   1   2     0.969367606148    47.02903655   171.49900542
 H      9   8   1     0.969063646817   106.06232873   128.66873461
 H      1   2   3     2.679782266325    64.91710814   124.27653530
 O     11   1   2     0.969151978718    44.88208271   192.97704759
 H     12  11   1     0.969314587334   106.02885877   231.76645013
 H      1   2   3     2.672606503617   109.01374796    53.87200852
 O     14   1   2     0.968889390542    45.45311481   285.83996024
 H     15  14   1     0.968872532578   106.28643439   231.20220791
 H      1   2   3     2.676963426768    66.95200369   197.90787783
 O     17   1   2     0.969362274683    45.69706367   118.43589284
 H     18  17   1     0.969389918627   105.92709202   231.37165496

---------------------------
INTERNAL COORDINATES (A.U.)
---------------------------
 Zn     0   0   0     0.000000000000     0.00000000     0.00000000
 H      1   0   0     5.071524277114     0.00000000     0.00000000
 O      2   1   0     1.831123284789    44.85948373     0.00000000
 H      3   2   1     1.831769957855   106.12574802   232.10696425
 H      1   2   3     5.018040636998   145.56980821   211.54784923
 O      5   1   2     1.831799479673    46.69847692   210.87324570
 H      6   5   1     1.831317324770   106.09108871   231.15507973
 H      1   2   3     5.013065182717    78.74125434   304.27369874
 O      8   1   2     1.831839298715    47.02903655   171.49900542
 H      9   8   1     1.831264898823   106.06232873   128.66873461
 H      1   2   3     5.064054581894    64.91710814   124.27653530
 O     11   1   2     1.831431821925    44.88208271   192.97704759
 H     12  11   1     1.831739107677   106.02885877   231.76645013
 H      1   2   3     5.050494355574   109.01374796    53.87200852
 O     14   1   2     1.830935602187    45.45311481   285.83996024
 H     15  14   1     1.830903745251   106.28643439   231.20220791
 H      1   2   3     5.058727747115    66.95200369   197.90787783
 O     17   1   2     1.831829223706    45.69706367   118.43589284
 H     18  17   1     1.831881463189   105.92709202   231.37165496

---------------------
BASIS SET INFORMATION
---------------------
There are 3 groups of distinct atoms

 Group   1 Type Zn  : 17s12p7d1f contracted to 6s5p4d1f pattern {842111/63111/4111/1}
 Group   2 Type H   : 5s1p contracted to 3s1p pattern {311/1}
 Group   3 Type O   : 11s6p2d1f contracted to 5s3p2d1f pattern {62111/411/11/1}

Atom   0Zn   basis set group =>   1
Atom   1H    basis set group =>   2
Atom   2O    basis set group =>   3
Atom   3H    basis set group =>   2
Atom   4H    basis set group =>   2
Atom   5O    basis set group =>   3
Atom   6H    basis set group =>   2
Atom   7H    basis set group =>   2
Atom   8O    basis set group =>   3
Atom   9H    basis set group =>   2
Atom  10H    basis set group =>   2
Atom  11O    basis set group =>   3
Atom  12H    basis set group =>   2
Atom  13H    basis set group =>   2
Atom  14O    basis set group =>   3
Atom  15H    basis set group =>   2
Atom  16H    basis set group =>   2
Atom  17O    basis set group =>   3
Atom  18H    basis set group =>   2
---------------------------------
AUXILIARY/J BASIS SET INFORMATION
---------------------------------
There are 3 groups of distinct atoms

 Group   1 Type Zn  : 19s5p5d3f3g contracted to 8s5p5d2f3g pattern {121111111/11111/11111/21/111}
 Group   2 Type H   : 5s2p1d contracted to 3s1p1d pattern {311/2/1}
 Group   3 Type O   : 12s5p4d2f1g contracted to 6s4p3d1f1g pattern {711111/2111/211/2/1}

Atom   0Zn   basis set group =>   1
Atom   1H    basis set group =>   2
Atom   2O    basis set group =>   3
Atom   3H    basis set group =>   2
Atom   4H    basis set group =>   2
Atom   5O    basis set group =>   3
Atom   6H    basis set group =>   2
Atom   7H    basis set group =>   2
Atom   8O    basis set group =>   3
Atom   9H    basis set group =>   2
Atom  10H    basis set group =>   2
Atom  11O    basis set group =>   3
Atom  12H    basis set group =>   2
Atom  13H    basis set group =>   2
Atom  14O    basis set group =>   3
Atom  15H    basis set group =>   2
Atom  16H    basis set group =>   2
Atom  17O    basis set group =>   3
Atom  18H    basis set group =>   2


           ************************************************************
           *        Program running with 20 parallel MPI-processes    *
           *              working on a common directory               *
           ************************************************************
------------------------------------------------------------------------------
                             ORCA STARTUP CALCULATIONS
                           -- RI-GTO INTEGRALS CHOSEN --
------------------------------------------------------------------------------
------------------------------------------------------------------------------
                   ___                                                        
                  /   \      - P O W E R E D   B Y -                         
                 /     \                                                     
                 |  |  |   _    _      __       _____    __    __             
                 |  |  |  | |  | |    /  \     |  _  \  |  |  /  |          
                  \  \/   | |  | |   /    \    | | | |  |  | /  /          
                 / \  \   | |__| |  /  /\  \   | |_| |  |  |/  /          
                |  |  |   |  __  | /  /__\  \  |    /   |      \           
                |  |  |   | |  | | |   __   |  |    \   |  |\   \          
                \     /   | |  | | |  |  |  |  | |\  \  |  | \   \       
                 \___/    |_|  |_| |__|  |__|  |_| \__\ |__|  \__/        
                                                                              
                      - O R C A' S   B I G   F R I E N D -                    
                                      &                                       
                       - I N T E G R A L  F E E D E R -                       
                                                                              
 v1 FN, 2020, v2 2021, v3 2022-2024                                           
------------------------------------------------------------------------------


----------------------
SHARK INTEGRAL PACKAGE
----------------------

Number of atoms                             ...     19
Number of basis functions                   ...    306
Number of shells                            ...    130
Maximum angular momentum                    ...      3
Integral batch strategy                     ... SHARK/LIBINT Hybrid
RI-J (if used) integral strategy            ... SPLIT-RIJ (Revised 2003 algorithm where possible)
Printlevel                                  ...      1
Contraction scheme used                     ... SEGMENTED contraction
Prescreening option                         ... SCHWARTZ
   Thresh                                   ... 1.000e-10
   Tcut                                     ... 1.000e-11
   Tpresel                                  ... 1.000e-11 
Coulomb Range Separation                    ... NOT USED
Exchange Range Separation                   ... NOT USED
Multipole approximations                    ... NOT USED
Finite Nucleus Model                        ... NOT USED
CABS basis                                  ... NOT available
Auxiliary Coulomb fitting basis             ... AVAILABLE
   # of basis functions in Aux-J            ...    515
   # of shells in Aux-J                     ...    173
   Maximum angular momentum in Aux-J        ...      4
Auxiliary J/K fitting basis                 ... NOT available
Auxiliary Correlation fitting basis         ... NOT available
Auxiliary 'external' fitting basis          ... NOT available

Checking pre-screening integrals            ... done (  0.0 sec) Dimension = 130
Check shell pair data                       ... done (  0.0 sec)
Shell pair information
Shell pair cut-off parameter TPreSel        ...   1.0e-11
Total number of shell pairs                 ...      8515
Shell pairs after pre-screening             ...      7362
Total number of primitive shell pairs       ...     26562
Primitive shell pairs kept                  ...     15913
          la=0 lb=0:   2193 shell pairs
          la=1 lb=0:   2192 shell pairs
          la=1 lb=1:    596 shell pairs
          la=2 lb=0:    991 shell pairs
          la=2 lb=1:    513 shell pairs
          la=2 lb=2:    115 shell pairs
          la=3 lb=0:    404 shell pairs
          la=3 lb=1:    227 shell pairs
          la=3 lb=2:    106 shell pairs
          la=3 lb=3:     25 shell pairs

Calculating one electron integrals          ... done (  0.0 sec)
Calculating RI/J V-Matrix + Cholesky decomp.... done (  0.0 sec)
Calculating Nuclear repulsion               ... done (  0.0 sec) ENN=    726.710252483444 Eh

Diagonalization of the overlap matrix:
Smallest eigenvalue                        ... 1.637e-03
Time for diagonalization                   ...    0.009 sec
Threshold for overlap eigenvalues          ... 1.000e-07
Number of eigenvalues below threshold      ... 0
Time for construction of square roots      ...    0.006 sec
Total time needed                          ...    0.021 sec

-------------------
DFT GRID GENERATION
-------------------

General Integration Accuracy     IntAcc      ... 4.388
Radial Grid Type                 RadialGrid  ... OptM3 with GC (2021)
Angular Grid (max. ang.)         AngularGrid ... 4 (Lebedev-302)
Angular grid pruning method      GridPruning ... 4 (adaptive)
Weight generation scheme         WeightScheme... mBecke (2022)
Basis function cutoff            BFCut       ... 1.0000e-10
Integration weight cutoff        WCut        ... 1.0000e-14
Partially contracted basis set               ... off
Rotationally invariant grid construction     ... off
Angular grids for H and He will be reduced by one unit
Core-polarized basis detected: some atoms will have their core
                               angular grid increased.

Total number of grid points                  ...    86456
Total number of batches                      ...     1360
Average number of points per batch           ...       63
Average number of grid points per atom       ...     4550

--------------------
COSX GRID GENERATION
--------------------

GRIDX 1
-------
General Integration Accuracy     IntAcc      ... 3.816
Radial Grid Type                 RadialGrid  ... OptM3 with GC (2021)
Angular Grid (max. ang.)         AngularGrid ... 1 (Lebedev-50)
Angular grid pruning method      GridPruning ... 4 (adaptive)
Weight generation scheme         WeightScheme... mBecke (2022)
Basis function cutoff            BFCut       ... 1.0000e-10
Integration weight cutoff        WCut        ... 1.0000e-14
Partially contracted basis set               ... on
Rotationally invariant grid construction     ... off
Angular grids for H and He will be reduced by one unit
Core-polarized basis detected: some atoms will have their core
                               angular grid increased.

Total number of grid points                  ...    15508
Total number of batches                      ...      135
Average number of points per batch           ...      114
Average number of grid points per atom       ...      816
UseSFitting                                  ... on

GRIDX 2
-------
General Integration Accuracy     IntAcc      ... 4.020
Radial Grid Type                 RadialGrid  ... OptM3 with GC (2021)
Angular Grid (max. ang.)         AngularGrid ... 2 (Lebedev-110)
Angular grid pruning method      GridPruning ... 4 (adaptive)
Weight generation scheme         WeightScheme... mBecke (2022)
Basis function cutoff            BFCut       ... 1.0000e-10
Integration weight cutoff        WCut        ... 1.0000e-14
Partially contracted basis set               ... on
Rotationally invariant grid construction     ... off
Angular grids for H and He will be reduced by one unit
Core-polarized basis detected: some atoms will have their core
                               angular grid increased.

Total number of grid points                  ...    25992
Total number of batches                      ...      216
Average number of points per batch           ...      120
Average number of grid points per atom       ...     1368
UseSFitting                                  ... on

GRIDX 3
-------
General Integration Accuracy     IntAcc      ... 4.338
Radial Grid Type                 RadialGrid  ... OptM3 with GC (2021)
Angular Grid (max. ang.)         AngularGrid ... 3 (Lebedev-194)
Angular grid pruning method      GridPruning ... 4 (adaptive)
Weight generation scheme         WeightScheme... mBecke (2022)
Basis function cutoff            BFCut       ... 1.0000e-10
Integration weight cutoff        WCut        ... 1.0000e-14
Partially contracted basis set               ... on
Rotationally invariant grid construction     ... off
Angular grids for H and He will be reduced by one unit
Core-polarized basis detected: some atoms will have their core
                               angular grid increased.

Total number of grid points                  ...    49918
Total number of batches                      ...      400
Average number of points per batch           ...      124
Average number of grid points per atom       ...     2627
UseSFitting                                  ... on
Initializing property integral containers    ... done (  0.0 sec)

SHARK setup successfully completed in   0.9 seconds

Maximum memory used throughout the entire STARTUP-calculation: 30.0 MB


           ************************************************************
           *        Program running with 20 parallel MPI-processes    *
           *              working on a common directory               *
           ************************************************************
-------------------------------------------------------------------------------
                                 ORCA GUESS
                   Start orbitals & Density for SCF / CASSCF
-------------------------------------------------------------------------------

------------
SCF SETTINGS
------------
Hamiltonian:
 Density Functional     Method          .... DFT(GTOs)
 Exchange Functional    Exchange        .... TPSS
 Correlation Functional Correlation     .... TPSS
 LDA part of GGA corr.  LDAOpt          .... PW91-LDA
 Gradients option       PostSCFGGA      .... off
 Hybrid DFT is turned on
   Fraction HF Exchange ScalHFX         ....  0.100000
   Scaling of DF-GGA-X  ScalDFX         ....  0.900000
   Scaling of DF-GGA-C  ScalDFC         ....  1.000000
   Scaling of DF-LDA-C  ScalLDAC        ....  1.000000
   Perturbative correction              ....  0.000000
   NL short-range parameter             ....  5.200000
 RI-approximation to the Coulomb term is turned on
   Number of AuxJ basis functions       .... 515
   RIJ-COSX (HFX calculated with COS-X)).... on


General Settings:
 Integral files         IntName         .... zinc_hydrate_3
 Hartree-Fock type      HFTyp           .... RHF
 Total Charge           Charge          ....    2
 Multiplicity           Mult            ....    1
 Number of Electrons    NEL             ....   88
 Basis Dimension        Dim             ....  306
 Nuclear Repulsion      ENuc            ....    726.7102524834 Eh

Convergence Acceleration:
 AO-DIIS                CNVDIIS         .... on
   Start iteration      DIISMaxIt       ....     0
   Startup error        DIISStart       ....  0.200000
   # of expansion vecs  DIISMaxEq       ....     5
   Bias factor          DIISBfac        ....   1.050
   Max. coefficient     DIISMaxC        ....  10.000
 MO-DIIS                CNVKDIIS        .... off
 Trust-Rad. Augm. Hess. CNVTRAH         .... auto
   Auto Start mean grad. ratio tolernc. ....  1.125000
   Auto Start start iteration           ....    50
   Auto Start num. interpolation iter.  ....    10
   Max. Number of Micro iterations      ....    24
   Max. Number of Macro iterations      .... Maxiter - #DIIS iter
   Number of Davidson start vectors     ....     2
   Converg. threshold    (grad. norm)   ....   5.000e-05
   Grad. Scal. Fac. for Micro threshold ....   0.100
   Minimum threshold for Micro iter.    ....   1.000e-02
   NR start threshold (gradient norm)   ....   1.000e-04
   Initial trust radius                 ....   0.400
   Minimum AH scaling param. (alpha)    ....   1.000
   Maximum AH scaling param. (alpha)    .... 1000.000
   Quad. conv. algorithm                .... NR
   White noise on init. David. guess    .... on
   Maximum white noise                  ....   0.010
   Pseudo random numbers                .... off
   Inactive MOs                         .... canonical
   Orbital update algorithm             .... Taylor
   Preconditioner                       .... Diag
   Full preconditioner red. dimension   ....   250
 SOSCF                  CNVSOSCF        .... on
   Start iteration      SOSCFMaxIt      ....   150
   Startup grad/error   SOSCFStart      ....  0.001000
   Hessian update       SOSCFHessUp     .... L-BFGS
 Level Shifting         CNVShift        .... on
   Level shift para.    LevelShift      ....    0.2500
   Turn off err/grad.   ShiftErr        ....    0.0000
 Zerner damping         CNVZerner       .... off
 Static damping         CNVDamp         .... on
   Fraction old density DampFac         ....    0.8500
   Max. Damping (<1)    DampMax         ....    0.9800
   Min. Damping (>=0)   DampMin         ....    0.0000
   Turn off err/grad.   DampErr         ....    0.0300

SCF Procedure:
 Maximum # iterations   MaxIter         ....   125
 SCF integral mode      SCFMode         .... Direct
   Integral package                     .... SHARK and LIBINT hybrid scheme
 Reset frequency        DirectResetFreq ....    20
 Integral Threshold     Thresh          ....  1.000e-10 Eh
 Primitive CutOff       TCut            ....  1.000e-11 Eh

Convergence Tolerance:
 Convergence Check Mode ConvCheckMode   .... Total+1el-Energy
 Convergence forced     ConvForced      .... 0
 Energy Change          TolE            ....  1.000e-06 Eh
 1-El. energy change                    ....  1.000e-03 Eh
 Orbital Gradient       TolG            ....  5.000e-05
 Orbital Rotation angle TolX            ....  5.000e-05
 DIIS Error             TolErr          ....  1.000e-06

------------------------------
INITIAL GUESS: MODEL POTENTIAL
------------------------------
Loading Hartree-Fock densities                     ... done
Calculating cut-offs                               ... done
Initializing the effective Hamiltonian             ... done
Setting up the integral package (SHARK)            ... done
Starting the Coulomb interaction                   ... done (   0.0 sec)
Making the grid                                    ... done (   0.1 sec)
Mapping shells                                     ... done
Starting the XC term evaluation                    ... done (   0.0 sec)
  promolecular density results
     # of electrons  =     89.993798722
     EX              =   -122.127745154
     EC              =     -3.396044856
     EX+EC           =   -125.523790009
Transforming the Hamiltonian                       ... done (   0.0 sec)
Diagonalizing the Hamiltonian                      ... done (   0.0 sec)
Back transforming the eigenvectors                 ... done (   0.0 sec)
Now organizing SCF variables                       ... done
                      ------------------
                      INITIAL GUESS DONE (   0.2 sec)
                      ------------------
             **** ENERGY FILE WAS UPDATED (zinc_hydrate_3.en.tmp) ****
Finished Guess after   0.8 sec
Maximum memory used throughout the entire GUESS-calculation: 19.7 MB


           ************************************************************
           *        Program running with 20 parallel MPI-processes    *
           *              working on a common directory               *
           ************************************************************

-------------------------------------------------------------------------------------------
                                      ORCA LEAN-SCF
                              memory conserving SCF solver
-------------------------------------------------------------------------------------------

--------------------
CPCM SOLVATION MODEL
--------------------
CPCM parameters:
  Epsilon                                         ...      80.1510
  Refrac                                          ...       1.3328
  Rsolv                                           ...       1.3000
  Surface type                                    ... GAUSSIAN VDW
  Discretization scheme                           ... Constant charge density
    Threshold for H atoms                         ...       5.0000 (charges/Ang^2)
    Threshold for non-H atoms                     ...       5.0000 (charges/Ang^2)
  Epsilon function type                           ...         CPCM
Solvent:                                          ... WATER
Radii:
  Scheme                                          ... Element-dependent radii
  Radius for Zn used is    3.1521 Bohr (=   1.6680 Ang.)
  Radius for H  used is    2.4944 Bohr (=   1.3200 Ang.)
  Radius for O  used is    3.4469 Bohr (=   1.8240 Ang.)
Calculating surface                               ...        done! (  0.0s)
Cavity surface points                             ...         1588
Cavity Volume                                     ...    1058.6524
Cavity Surface-area                               ...     665.3844
Calculating surface distance matrix               ...        done! (  0.0s)
Performing Cholesky decomposition & store         ...        done! (  0.1s)
Overall time for CPCM initialization              ...                 0.1s

----------------------------------------D-I-I-S--------------------------------------------
Iteration    Energy (Eh)           Delta-E    RMSDP     MaxDP     DIISErr   Damp  Time(sec)
-------------------------------------------------------------------------------------------
               ***  Starting incremental Fock matrix formation  ***
    1    -2237.5810106367666776     0.00e+00  7.86e-04  2.70e-02  2.68e-01  0.850   0.9
    2    -2237.7087612455638919    -1.28e-01  7.07e-04  2.75e-02  1.86e-01  0.850   0.7
                               ***Turning on AO-DIIS***
    3    -2237.7788567090105971    -7.01e-02  3.02e-04  1.11e-02  1.14e-01  0.850   0.6
    4    -2237.8203440731995215    -4.15e-02  1.69e-04  5.35e-03  8.55e-02  0.850   0.6
    5    -2237.8498341962394989    -2.95e-02  1.22e-04  3.35e-03  6.96e-02  0.850   0.6
    6    -2237.8729725611183312    -2.31e-02  1.02e-04  2.75e-03  5.84e-02  0.850   0.6
    7    -2237.8919066836374441    -1.89e-02  8.84e-05  2.39e-03  4.94e-02  0.850   0.6
    8    -2237.9075954362156153    -1.57e-02  7.62e-05  2.08e-03  4.15e-02  0.850   0.6
    9    -2237.9205972166400898    -1.30e-02  6.46e-05  1.75e-03  3.46e-02  0.850   0.6
   10    -2237.9314048503329104    -1.08e-02  5.44e-05  1.45e-03  2.88e-02  0.850   0.6
   11    -2237.9404124455886631    -9.01e-03  3.05e-04  8.05e-03  2.40e-02  0.000   0.6
   12    -2237.9886021625516150    -4.82e-02  2.93e-05  1.27e-03  4.01e-03  0.000   0.6
   13    -2237.9886423327529883    -4.02e-05  1.30e-05  6.66e-04  3.22e-03  0.000   0.6
                              *** Initializing SOSCF ***
---------------------------------------S-O-S-C-F--------------------------------------
Iteration    Energy (Eh)           Delta-E    RMSDP     MaxDP     MaxGrad    Time(sec)
--------------------------------------------------------------------------------------
   14    -2237.9886491387987917    -6.81e-06  3.21e-06  1.34e-04  8.00e-04     0.6
               *** Restarting incremental Fock matrix formation ***
   15    -2237.9886413966428336     7.74e-06  1.21e-06  3.58e-05  1.08e-05     0.8
                  *** Gradient check signals convergence ***

               *****************************************************
               *                     SUCCESS                       *
               *           SCF CONVERGED AFTER  15 CYCLES          *
               *****************************************************

Recomputing exchange energy using gridx3       ... done (    0.788 sec)
Old exchange energy                            :    -12.283392468 Eh
New exchange energy                            :    -12.283375012 Eh
Exchange energy change after final integration :      0.000017457 Eh
Total energy after final integration           :  -2237.988623940 Eh
             **** ENERGY FILE WAS UPDATED (zinc_hydrate_3.en.tmp) ****

----------------
TOTAL SCF ENERGY
----------------

Total Energy       :      -2237.98862393990657 Eh          -60898.76649 eV

Components:
Nuclear Repulsion  :        726.71025248344370 Eh           19774.79130 eV
Electronic Energy  :      -2964.36775050395045 Eh          -80664.54740 eV
One Electron Energy:      -4532.55783601967323 Eh         -123337.16906 eV
Two Electron Energy:       1568.19008551572279 Eh           42672.62166 eV
CPCM Dielectric    :         -0.33114337613597 Eh              -9.01087 eV

Virial components:
Potential Energy   :      -4471.30511719353126 Eh         -121670.39784 eV
Kinetic Energy     :       2233.31649325362514 Eh           60771.63135 eV
Virial Ratio       :          2.00209201458924

DFT components:
N(Alpha)           :       44.000045822862 electrons
N(Beta)            :       44.000045822862 electrons
N(Total)           :       88.000091645723 electrons
E(X)               :     -111.131116886335 Eh       
E(C)               :       -3.390045419905 Eh       
E(XC)              :     -114.521162306240 Eh       

CPCM Solvation Model Properties:
Surface-charge          :         -2.01011141927465
Corrected charge        :         -2.00000000000000
Outlying charge corr.   :          0.00000755618242 Eh               0.00021 eV
Free-energy (cav+disp)  :  This term is not implemented in the current solvation scheme

---------------
SCF CONVERGENCE
---------------

  Last Energy change         ...   -7.7422e-06  Tolerance :   1.0000e-06
  Last MAX-Density change    ...    3.5777e-05  Tolerance :   1.0000e-05
  Last RMS-Density change    ...    1.2134e-06  Tolerance :   1.0000e-06
  Last DIIS Error            ...    8.0024e-04  Tolerance :   1.0000e-06
  Last Orbital Gradient      ...    1.0806e-05  Tolerance :   5.0000e-05
  Last Orbital Rotation      ...    2.0984e-05  Tolerance :   5.0000e-05


----------------
ORBITAL ENERGIES
----------------

  NO   OCC          E(Eh)            E(eV) 
   0   2.0000    -347.010926     -9442.6473 
   1   2.0000     -42.022179     -1143.4816 
   2   2.0000     -36.973561     -1006.1018 
   3   2.0000     -36.973308     -1006.0949 
   4   2.0000     -36.973028     -1006.0872 
   5   2.0000     -19.107214      -519.9337 
   6   2.0000     -19.106240      -519.9072 
   7   2.0000     -19.106150      -519.9048 
   8   2.0000     -19.106118      -519.9039 
   9   2.0000     -19.106068      -519.9025 
  10   2.0000     -19.104499      -519.8598 
  11   2.0000      -4.766018      -129.6899 
  12   2.0000      -3.154380       -85.8350 
  13   2.0000      -3.154237       -85.8312 
  14   2.0000      -3.154117       -85.8279 
  15   2.0000      -1.044912       -28.4335 
  16   2.0000      -1.037544       -28.2330 
  17   2.0000      -1.037044       -28.2194 
  18   2.0000      -1.036648       -28.2086 
  19   2.0000      -1.034366       -28.1465 
  20   2.0000      -1.033852       -28.1325 
  21   2.0000      -0.557137       -15.1605 
  22   2.0000      -0.555580       -15.1181 
  23   2.0000      -0.555042       -15.1035 
  24   2.0000      -0.554490       -15.0884 
  25   2.0000      -0.553340       -15.0571 
  26   2.0000      -0.553012       -15.0482 
  27   2.0000      -0.494974       -13.4689 
  28   2.0000      -0.492716       -13.4075 
  29   2.0000      -0.492225       -13.3941 
  30   2.0000      -0.458003       -12.4629 
  31   2.0000      -0.450695       -12.2640 
  32   2.0000      -0.449770       -12.2389 
  33   2.0000      -0.447977       -12.1901 
  34   2.0000      -0.439794       -11.9674 
  35   2.0000      -0.429320       -11.6824 
  36   2.0000      -0.389861       -10.6087 
  37   2.0000      -0.386502       -10.5172 
  38   2.0000      -0.362809        -9.8725 
  39   2.0000      -0.358109        -9.7446 
  40   2.0000      -0.349285        -9.5045 
  41   2.0000      -0.343069        -9.3354 
  42   2.0000      -0.323326        -8.7981 
  43   2.0000      -0.323160        -8.7936 
  44   0.0000      -0.032379        -0.8811 
  45   0.0000       0.017275         0.4701 
  46   0.0000       0.022308         0.6070 
  47   0.0000       0.026697         0.7265 
  48   0.0000       0.064776         1.7627 
  49   0.0000       0.066130         1.7995 
  50   0.0000       0.089248         2.4286 
  51   0.0000       0.094891         2.5821 
  52   0.0000       0.098319         2.6754 
  53   0.0000       0.106239         2.8909 
  54   0.0000       0.115328         3.1382 
*Only the first 10 virtual orbitals were printed.

                    ********************************
                    * MULLIKEN POPULATION ANALYSIS *
                    ********************************

-----------------------
MULLIKEN ATOMIC CHARGES
-----------------------
   0 Zn:    0.748565
   1 H :    0.404540
   2 O :   -0.604230
   3 H :    0.406019
   4 H :    0.406732
   5 O :   -0.601169
   6 H :    0.403961
   7 H :    0.406317
   8 O :   -0.599853
   9 H :    0.403849
  10 H :    0.404039
  11 O :   -0.598631
  12 H :    0.406286
  13 H :    0.405226
  14 O :   -0.608507
  15 H :    0.405451
  16 H :    0.404496
  17 O :   -0.597923
  18 H :    0.404833
Sum of atomic charges:    2.0000000

--------------------------------
MULLIKEN REDUCED ORBITAL CHARGES
--------------------------------
  0 Zns       :     6.477068  s :     6.477068
      pz      :     4.217362  p :    12.651966
      px      :     4.220624
      py      :     4.213981
      dz2     :     2.015912  d :    10.122282
      dxz     :     2.038702
      dyz     :     2.023131
      dx2y2   :     2.023271
      dxy     :     2.021267
      f0      :     0.000015  f :     0.000118
      f+1     :     0.000013
      f-1     :     0.000015
      f+2     :     0.000032
      f-2     :     0.000016
      f+3     :     0.000013
      f-3     :     0.000016

  1 H s       :     0.552584  s :     0.552584
      pz      :     0.014714  p :     0.042876
      px      :     0.010668
      py      :     0.017494

  2 O s       :     3.762081  s :     3.762081
      pz      :     1.585893  p :     4.822289
      px      :     1.582774
      py      :     1.653622
      dz2     :     0.000462  d :     0.018520
      dxz     :     0.006135
      dyz     :     0.004450
      dx2y2   :     0.005906
      dxy     :     0.001567
      f0      :     0.000195  f :     0.001341
      f+1     :     0.000142
      f-1     :     0.000144
      f+2     :     0.000656
      f-2     :     0.000074
      f+3     :     0.000096
      f-3     :     0.000034

  3 H s       :     0.551180  s :     0.551180
      pz      :     0.014610  p :     0.042800
      px      :     0.016785
      py      :     0.011404

  4 H s       :     0.550444  s :     0.550444
      pz      :     0.014584  p :     0.042825
      px      :     0.016679
      py      :     0.011562

  5 O s       :     3.760558  s :     3.760558
      pz      :     1.554729  p :     4.820688
      px      :     1.589573
      py      :     1.676386
      dz2     :     0.000322  d :     0.018586
      dxz     :     0.006149
      dyz     :     0.004996
      dx2y2   :     0.005407
      dxy     :     0.001711
      f0      :     0.000152  f :     0.001338
      f+1     :     0.000173
      f-1     :     0.000183
      f+2     :     0.000642
      f-2     :     0.000066
      f+3     :     0.000092
      f-3     :     0.000030

  6 H s       :     0.553154  s :     0.553154
      pz      :     0.014831  p :     0.042885
      px      :     0.010798
      py      :     0.017256

  7 H s       :     0.550883  s :     0.550883
      pz      :     0.017072  p :     0.042800
      px      :     0.012679
      py      :     0.013049

  8 O s       :     3.761235  s :     3.761235
      pz      :     1.611647  p :     4.818641
      px      :     1.403202
      py      :     1.803793
      dz2     :     0.005212  d :     0.018640
      dxz     :     0.006907
      dyz     :     0.001414
      dx2y2   :     0.003143
      dxy     :     0.001964
      f0      :     0.000038  f :     0.001337
      f+1     :     0.000399
      f-1     :     0.000064
      f+2     :     0.000238
      f-2     :     0.000109
      f+3     :     0.000198
      f-3     :     0.000292

  9 H s       :     0.553237  s :     0.553237
      pz      :     0.011285  p :     0.042914
      px      :     0.017468
      py      :     0.014161

 10 H s       :     0.553079  s :     0.553079
      pz      :     0.014742  p :     0.042882
      px      :     0.013242
      py      :     0.014897

 11 O s       :     3.760594  s :     3.760594
      pz      :     1.804365  p :     4.818104
      px      :     1.443526
      py      :     1.570212
      dz2     :     0.002537  d :     0.018594
      dxz     :     0.001568
      dyz     :     0.004208
      dx2y2   :     0.001767
      dxy     :     0.008512
      f0      :     0.000306  f :     0.001339
      f+1     :     0.000195
      f-1     :     0.000070
      f+2     :     0.000076
      f-2     :     0.000377
      f+3     :     0.000076
      f-3     :     0.000238

 12 H s       :     0.550876  s :     0.550876
      pz      :     0.013696  p :     0.042838
      px      :     0.016800
      py      :     0.012342

 13 H s       :     0.551915  s :     0.551915
      pz      :     0.017731  p :     0.042859
      px      :     0.013909
      py      :     0.011219

 14 O s       :     3.766744  s :     3.766744
      pz      :     1.527973  p :     4.821842
      px      :     1.897514
      py      :     1.396355
      dz2     :     0.006482  d :     0.018578
      dxz     :     0.001808
      dyz     :     0.004241
      dx2y2   :     0.003781
      dxy     :     0.002265
      f0      :     0.000102  f :     0.001343
      f+1     :     0.000051
      f-1     :     0.000404
      f+2     :     0.000191
      f-2     :     0.000016
      f+3     :     0.000239
      f-3     :     0.000340

 15 H s       :     0.551698  s :     0.551698
      pz      :     0.010095  p :     0.042850
      px      :     0.014222
      py      :     0.018533

 16 H s       :     0.552641  s :     0.552641
      pz      :     0.010102  p :     0.042863
      px      :     0.014200
      py      :     0.018561

 17 O s       :     3.756790  s :     3.756790
      pz      :     1.527310  p :     4.821319
      px      :     1.896514
      py      :     1.397495
      dz2     :     0.006433  d :     0.018474
      dxz     :     0.001969
      dyz     :     0.003998
      dx2y2   :     0.003808
      dxy     :     0.002266
      f0      :     0.000104  f :     0.001340
      f+1     :     0.000060
      f-1     :     0.000397
      f+2     :     0.000180
      f-2     :     0.000020
      f+3     :     0.000226
      f-3     :     0.000353

 18 H s       :     0.552317  s :     0.552317
      pz      :     0.017794  p :     0.042851
      px      :     0.013937
      py      :     0.011120



                     *******************************
                     * LOEWDIN POPULATION ANALYSIS *
                     *******************************

----------------------
LOEWDIN ATOMIC CHARGES
----------------------
   0 Zn:    0.021576
   1 H :    0.211366
   2 O :   -0.093036
   3 H :    0.211430
   4 H :    0.211194
   5 O :   -0.093067
   6 H :    0.211688
   7 H :    0.211189
   8 O :   -0.093712
   9 H :    0.211399
  10 H :    0.211621
  11 O :   -0.091924
  12 H :    0.211545
  13 H :    0.210488
  14 O :   -0.092316
  15 H :    0.210294
  16 H :    0.212155
  17 O :   -0.094218
  18 H :    0.212326

-------------------------------
LOEWDIN REDUCED ORBITAL CHARGES
-------------------------------
  0 Zns       :     6.341695  s :     6.341695
      pz      :     4.272229  p :    12.821310
      px      :     4.277679
      py      :     4.271402
      dz2     :     2.113347  d :    10.815270
      dxz     :     2.206186
      dyz     :     2.183554
      dx2y2   :     2.206743
      dxy     :     2.105441
      f0      :     0.000018  f :     0.000148
      f+1     :     0.000015
      f-1     :     0.000019
      f+2     :     0.000040
      f-2     :     0.000019
      f+3     :     0.000015
      f-3     :     0.000021

  1 H s       :     0.634210  s :     0.634210
      pz      :     0.050554  p :     0.154425
      px      :     0.031331
      py      :     0.072539

  2 O s       :     3.373843  s :     3.373843
      pz      :     1.536358  p :     4.685872
      px      :     1.545426
      py      :     1.604089
      dz2     :     0.000724  d :     0.031039
      dxz     :     0.011330
      dyz     :     0.007174
      dx2y2   :     0.010177
      dxy     :     0.001634
      f0      :     0.000383  f :     0.002282
      f+1     :     0.000244
      f-1     :     0.000137
      f+2     :     0.000969
      f-2     :     0.000091
      f+3     :     0.000296
      f-3     :     0.000163

  3 H s       :     0.634251  s :     0.634251
      pz      :     0.054263  p :     0.154319
      px      :     0.066965
      py      :     0.033091

  4 H s       :     0.634560  s :     0.634560
      pz      :     0.054664  p :     0.154247
      px      :     0.065734
      py      :     0.033848

  5 O s       :     3.374293  s :     3.374293
      pz      :     1.508821  p :     4.685427
      px      :     1.552333
      py      :     1.624273
      dz2     :     0.000711  d :     0.031066
      dxz     :     0.011438
      dyz     :     0.007940
      dx2y2   :     0.009319
      dxy     :     0.001657
      f0      :     0.000312  f :     0.002280
      f+1     :     0.000293
      f-1     :     0.000211
      f+2     :     0.000950
      f-2     :     0.000101
      f+3     :     0.000269
      f-3     :     0.000145

  6 H s       :     0.633966  s :     0.633966
      pz      :     0.052019  p :     0.154346
      px      :     0.031658
      py      :     0.070669

  7 H s       :     0.634523  s :     0.634523
      pz      :     0.072017  p :     0.154287
      px      :     0.043576
      py      :     0.038694

  8 O s       :     3.375002  s :     3.375002
      pz      :     1.574018  p :     4.685376
      px      :     1.373092
      py      :     1.738266
      dz2     :     0.007196  d :     0.031054
      dxz     :     0.011096
      dyz     :     0.002180
      dx2y2   :     0.006701
      dxy     :     0.003882
      f0      :     0.000191  f :     0.002279
      f+1     :     0.000766
      f-1     :     0.000104
      f+2     :     0.000349
      f-2     :     0.000200
      f+3     :     0.000229
      f-3     :     0.000441

  9 H s       :     0.634251  s :     0.634251
      pz      :     0.035508  p :     0.154350
      px      :     0.074797
      py      :     0.044046

 10 H s       :     0.634090  s :     0.634090
      pz      :     0.050372  p :     0.154289
      px      :     0.045709
      py      :     0.058208

 11 O s       :     3.373758  s :     3.373758
      pz      :     1.733596  p :     4.684730
      px      :     1.409423
      py      :     1.541710
      dz2     :     0.003088  d :     0.031152
      dxz     :     0.002730
      dyz     :     0.006963
      dx2y2   :     0.004051
      dxy     :     0.014320
      f0      :     0.000437  f :     0.002284
      f+1     :     0.000185
      f-1     :     0.000092
      f+2     :     0.000104
      f-2     :     0.000583
      f+3     :     0.000289
      f-3     :     0.000594

 12 H s       :     0.634191  s :     0.634191
      pz      :     0.041089  p :     0.154264
      px      :     0.070077
      py      :     0.043097

 13 H s       :     0.635082  s :     0.635082
      pz      :     0.075543  p :     0.154431
      px      :     0.042145
      py      :     0.036742

 14 O s       :     3.373055  s :     3.373055
      pz      :     1.498805  p :     4.685836
      px      :     1.816642
      py      :     1.370389
      dz2     :     0.010599  d :     0.031142
      dxz     :     0.002542
      dyz     :     0.008592
      dx2y2   :     0.006260
      dxy     :     0.003149
      f0      :     0.000315  f :     0.002282
      f+1     :     0.000101
      f-1     :     0.000840
      f+2     :     0.000214
      f-2     :     0.000099
      f+3     :     0.000274
      f-3     :     0.000439

 15 H s       :     0.635262  s :     0.635262
      pz      :     0.029939  p :     0.154443
      px      :     0.044720
      py      :     0.079783

 16 H s       :     0.633569  s :     0.633569
      pz      :     0.029860  p :     0.154276
      px      :     0.044386
      py      :     0.080030

 17 O s       :     3.375063  s :     3.375063
      pz      :     1.498161  p :     4.685973
      px      :     1.817630
      py      :     1.370182
      dz2     :     0.010602  d :     0.030902
      dxz     :     0.002707
      dyz     :     0.008196
      dx2y2   :     0.006314
      dxy     :     0.003083
      f0      :     0.000314  f :     0.002280
      f+1     :     0.000116
      f-1     :     0.000833
      f+2     :     0.000199
      f-2     :     0.000107
      f+3     :     0.000254
      f-3     :     0.000458

 18 H s       :     0.633422  s :     0.633422
      pz      :     0.075667  p :     0.154251
      px      :     0.042329
      py      :     0.036256



                      *****************************
                      * MAYER POPULATION ANALYSIS *
                      *****************************

  NA   - Mulliken gross atomic population
  ZA   - Total nuclear charge
  QA   - Mulliken gross atomic charge
  VA   - Mayer's total valence
  BVA  - Mayer's bonded valence
  FA   - Mayer's free valence

  ATOM       NA         ZA         QA         VA         BVA        FA
  0 Zn    29.2514    30.0000     0.7486     2.0837     2.0837    -0.0000
  1 H      0.5955     1.0000     0.4045     0.8503     0.8503    -0.0000
  2 O      8.6042     8.0000    -0.6042     1.9518     1.9518    -0.0000
  3 H      0.5940     1.0000     0.4060     0.8479     0.8479     0.0000
  4 H      0.5933     1.0000     0.4067     0.8461     0.8461    -0.0000
  5 O      8.6012     8.0000    -0.6012     1.9568     1.9568    -0.0000
  6 H      0.5960     1.0000     0.4040     0.8518     0.8518    -0.0000
  7 H      0.5937     1.0000     0.4063     0.8471     0.8471    -0.0000
  8 O      8.5999     8.0000    -0.5999     1.9604     1.9604     0.0000
  9 H      0.5962     1.0000     0.4038     0.8515     0.8515     0.0000
 10 H      0.5960     1.0000     0.4040     0.8515     0.8515     0.0000
 11 O      8.5986     8.0000    -0.5986     1.9604     1.9604     0.0000
 12 H      0.5937     1.0000     0.4063     0.8473     0.8473    -0.0000
 13 H      0.5948     1.0000     0.4052     0.8488     0.8488     0.0000
 14 O      8.6085     8.0000    -0.6085     1.9553     1.9553     0.0000
 15 H      0.5945     1.0000     0.4055     0.8483     0.8483    -0.0000
 16 H      0.5955     1.0000     0.4045     0.8505     0.8505     0.0000
 17 O      8.5979     8.0000    -0.5979     1.9536     1.9536     0.0000
 18 H      0.5952     1.0000     0.4048     0.8500     0.8500    -0.0000

  Mayer bond orders larger than 0.100000
B(  0-Zn,  2-O ) :   0.3356 B(  0-Zn,  5-O ) :   0.3380 B(  0-Zn,  8-O ) :   0.3434 
B(  0-Zn, 11-O ) :   0.3451 B(  0-Zn, 14-O ) :   0.3436 B(  0-Zn, 17-O ) :   0.3299 
B(  1-H ,  2-O ) :   0.8403 B(  2-O ,  3-H ) :   0.8389 B(  4-H ,  5-O ) :   0.8386 
B(  5-O ,  6-H ) :   0.8412 B(  7-H ,  8-O ) :   0.8383 B(  8-O ,  9-H ) :   0.8410 
B( 10-H , 11-O ) :   0.8401 B( 11-O , 12-H ) :   0.8388 B( 13-H , 14-O ) :   0.8395 
B( 14-O , 15-H ) :   0.8389 B( 16-H , 17-O ) :   0.8406 B( 17-O , 18-H ) :   0.8413 


Environment variable NBOEXE for nbo6.exe or nbo5.exe not set! Skipping NBO-Analysis

-------
TIMINGS
-------

Total SCF time: 0 days 0 hours 0 min 11 sec 

Total time                  ....      11.211 sec
Sum of individual times     ....      11.070 sec  ( 98.7%)

SCF preparation             ....       0.733 sec  (  6.5%)
Fock matrix formation       ....       9.104 sec  ( 81.2%)
  Startup                   ....       0.089 sec  (  1.0% of F)
  Split-RI-J                ....       0.727 sec  (  8.0% of F)
  Chain of spheres X        ....       4.924 sec  ( 54.1% of F)
  XC integration            ....       2.030 sec  ( 22.3% of F)
    XC Preparation          ....       0.000 sec  (  0.0% of XC)
    Basis function eval.    ....       0.265 sec  ( 13.0% of XC)
    Density eval.           ....       0.344 sec  ( 17.0% of XC)
    XC-Functional eval.     ....       0.141 sec  (  7.0% of XC)
    XC-Potential eval.      ....       0.382 sec  ( 18.8% of XC)
  CPCM terms                ....       1.103 sec  ( 12.1% of F)
Diagonalization             ....       0.000 sec  (  0.0%)
Density matrix formation    ....       0.284 sec  (  2.5%)
Total Energy calculation    ....       0.089 sec  (  0.8%)
Population analysis         ....       0.030 sec  (  0.3%)
Orbital Transformation      ....       0.057 sec  (  0.5%)
Orbital Orthonormalization  ....       0.000 sec  (  0.0%)
DIIS solution               ....       0.721 sec  (  6.4%)
SOSCF solution              ....       0.052 sec  (  0.5%)
Finished LeanSCF after  11.3 sec

Maximum memory used throughout the entire LEANSCF-calculation: 31.7 MB


-------------------------------------------------------------------------------
                          DFT DISPERSION CORRECTION                            
                                                                               
                              DFTD3 V3.1  Rev 1                                
                          USING Becke-Johnson damping                          
-------------------------------------------------------------------------------
The TPSSH functional is recognized
Active option DFTDOPT                   ...         4   

molecular C6(AA) [au] = 2705.988788 


            DFT-D V3
 parameters
 s6 scaling factor         :     1.0000 
 a1 scaling factor         :     0.4529 
 s8 scaling factor         :     2.2382 
 a2 scaling factor         :     4.6550 
 ad hoc parameters k1-k3   :    16.0000     1.3333    -4.0000 

 Edisp/kcal,au: -10.606544201356  -0.016902602285 
 E6   /kcal   :  -5.125966426 
 E8   /kcal   :  -5.480577776 
 % E8         :  51.671663002 

-------------------------   ----------------
Dispersion correction           -0.016902602
-------------------------   ----------------


-------------------------   --------------------
FINAL SINGLE POINT ENERGY     -2238.005526542191
-------------------------   --------------------



           ************************************************************
           *        Program running with 20 parallel MPI-processes    *
           *              working on a common directory               *
           ************************************************************

------------------------------------------------------------------------------
                              ORCA PROPERTY CALCULATIONS
------------------------------------------------------------------------------

GBWName                                 ... zinc_hydrate_3.gbw
Number of atoms                         ...     19
Number of basis functions               ...    306
Max core memory                         ...   5000 MB

Electric properties:
Dipole moment                           ... YES
Quadrupole moment                       ...  NO
Static polarizability (Dipole/Dipole)   ...  NO
Static polarizability (Dipole/Quad.)    ...  NO
Static polarizability (Quad./Quad.)     ...  NO
Static polarizability (Velocity)        ...  NO

Atomic electric properties:
Dipole moment                           ...  NO
Quadrupole moment                       ...  NO
Static polarizability                   ...  NO

Choice of electric origin               ... Center of mass
Position of electric origin             ...     1.938486     1.719926     2.188275

General magnetic properties:
Magnetizability                         ...  NO

EPR properties:
g-Tensor (aka g-matrix)                 ...  NO
Zero-Field splitting spin-orbit         ...  NO
Zero-field splitting spin-spin          ...  NO
Hyperfine couplings                     ...  NO (   0 nuclei)
Quadrupole couplings                    ...  NO (   0 nuclei)
Contact density                         ...  NO (   0 nuclei)

NMR properties:
Chemical shifts                         ...  NO (   0 nuclei)
Spin-rotation constants                 ...  NO (   0 nuclei)
Spin-spin couplings                     ...  NO (   0 nuclei,    0 pairs)

Choice of magnetic origin               ... GIAO
Position of magnetic origin             ...     0.000000     0.000000     0.000000

Properties with geometric perturbations:
SCF Hessian                             ...  NO
IR spectrum                             ...  NO
VCD spectrum                            ...  NO
X-ray spectroscopy properties:
SCF XES/XAS/RIXS spectra                ...  NO


-------------
DIPOLE MOMENT
-------------

Method             : SCF
Type of density    : Electron Density
Multiplicity       :   1
Irrep              :   0
Energy             : -2237.9886239399065744 Eh
Relativity type    : 
Basis              : AO
                                X                 Y                 Z
Electronic contribution:      0.090408051      -0.057892289      -0.085325062
Nuclear contribution   :      0.386207981      -0.502565570      -0.916734246
                        -----------------------------------------
Total Dipole Moment    :      0.476616032      -0.560457859      -1.002059308
                        -----------------------------------------
Magnitude (a.u.)       :      1.243140663
Magnitude (Debye)      :      3.159812452



--------------------
Rotational spectrum 
--------------------
 
Rotational constants in cm-1:             0.050423             0.049045             0.048081 
Rotational constants in MHz :          1511.657622          1470.319100          1441.434169 

Dipole components along the rotational axes: 
x,y,z [a.u.] :     0.618784     0.880457    -0.622335 
x,y,z [Debye]:     1.572824     2.237943    -1.581851 

 

Dipole moment calculation done in   0.0 sec 

Maximum memory used throughout the entire PROP-calculation: 15.6 MB

--------------------------------
SUGGESTED CITATIONS FOR THIS RUN
--------------------------------

Below you find a list of papers that are relevant to this ORCA run
We neither can nor want to force you to cite these papers, but we appreciate if you do
You receive ORCA, which is the product of decades of hard work by many enthusiastic individuals, for free
The only thing we kindly ask in return is that you cite our papers,
We deeply appreciate it, if you show your appreciation for ORCA by not just citing the generic ORCA reference.

Please note that relegating all ORCA citations to the supporting information does *not* help us.
SI sections are not indexed - citations you put there will not count into any citation statistics
But we need these citations in order to attract the funding resources that allow us to do what we are doing

Therefore, if you are a happy ORCA user, please consider citing a few of the papers listed below in the main body of your paper

In addition to the list printed below, the program has created the file zinc_hydrate_3.bibtex that contains the list in bibtex format
You can import this file easily into all common literature databanks and citation aid programs


List of essential papers. We consider these as the minimum necessary citations

  1. Neese,F.
     Software update: the ORCA program system, version 5.0
     WIRES Comput. Molec. Sci., 2022 12(1)e1606
     doi.org/10.1002/wcms.1606

List of papers to cite with high priority. The work reported in these papers was absolutely
necessary for this run to complete.
Our perspective: the developers of density functionals and basis sets usually get cited in chemistry papers
Good! But without the algorithms to do something with them, the functionals or basis sets would not do anything.
Hence, in our opinion, the algorithm design and method developments papers are equally worthy of getting cited

  1. Neese,F.
     An improvement of the resolution of the identity approximation for the formation of the Coulomb matrix
     J. Comp. Chem., 2003 24(14)1740-1747
     doi.org/10.1002/jcc.10318
  2. Neese,F.; Wennmohs,F.; Hansen,A.; Becker,U.
     Efficient, approximate and parallel Hartree-Fock and hybrid DFT calculations. A 'chain-of-spheres' algorithm for the Hartree-Fock exchange
     Chem. Phys., 2009 356(1-3)98-109
     doi.org/10.1016/j.chemphys.2008.10.036
  3. Garcia-Rates,M.; Neese,F.
     Effect of the Solute Cavity on the Solvation Energy and its Derivatives within the Framework of the Gaussian Charge Scheme
     J. Comput. Chem., 2020 41 922-939
     doi.org/10.1002/jcc.26139
  4. Helmich-Paris,B.; de Souza,B.; Neese,F.; Izsák,R.
     An improved chain of spheres for exchange algorithm
     J. Chem. Phys., 2021 155 104109
     doi.org/doi: 10.1063/5.0058766.
  5. Neese,F.
     The SHARK Integral Generation and Digestion System
     J. Comp. Chem., 2022  1-16
     doi.org/10.1002/jcc.26942
  6. Grimme,S.; Antony,J.; Ehrlich,S.; Krieg,H.
     A consistent and accurate ab initio parametrization of density functional dispersion correction (DFT-D) for the 94 elements H-Pu
     J. Chem. Phys., 2010 132 154104
     doi.org/10.1063/1.3382344
  7. Grimme,S.; Ehrlich,S.; Goerigk,L.
     Effect of the damping function in dispersion corrected density functional theory
     J. Comput. Chem., 2011 32(7)1456-1465
     doi.org/10.1002/jcc.21759

List of suggested additional citations. These are papers that are important in the 'surrounding' of 
of this run, or papers that preceded the highly important papers. If you like your results we are grateful for a citation.

  1. Izsak,R.; Neese,F.
     An overlap fitted chain of spheres exchange method
     J. Chem. Phys., 2011 135 144105
     doi.org/10.1063/1.3646921
  2. Izsak,R.; Hansen,A.; Neese,F.
     The resolution of identity and chain of spheres approximations for the LPNO-CCSD singles Fock term
     Molec. Phys., 2012 110 2413-2417
     doi.org/10.1080/00268976.2012.687466
  3. Neese,F.
     The ORCA program system
     WIRES Comput. Molec. Sci., 2012 2(1)73-78
     doi.org/10.1002/wcms.81
  4. Izsak,R.; Neese,F.; Klopper,W.
     Robust fitting techniques in the chain of spheres approximation to the Fock exchange: The role of the complementary space
     J. Chem. Phys., 2013 139 
     doi.org/10.1063/1.4819264
  5. Neese,F.
     Software update: the ORCA program system, version 4.0
     WIRES Comput. Molec. Sci., 2018 8(1)1-6
     doi.org/10.1002/wcms.1327
  6. Neese,F.; Wennmohs,F.; Becker,U.; Riplinger,C.
     The ORCA quantum chemistry program package
     J. Chem. Phys., 2020 152 Art. No. L224108
     doi.org/10.1063/5.0004608

List of optional additional citations

  1. Neese,F.
     Approximate second-order SCF convergence for spin unrestricted wavefunctions
     Chem. Phys. Lett., 2000 325(1-3)93-98
     doi.org/10.1016/s0009-2614(00)00662-x

Timings for individual modules:

Sum of individual times          ...       14.524 sec (=   0.242 min)
Startup calculation              ...        1.575 sec (=   0.026 min)  10.8 %
SCF iterations                   ...       12.290 sec (=   0.205 min)  84.6 %
Property calculations            ...        0.659 sec (=   0.011 min)   4.5 %
                             ****ORCA TERMINATED NORMALLY****
TOTAL RUN TIME: 0 days 0 hours 0 minutes 15 seconds 434 msec
