LAMMPS data file via write_data, version 2 Aug 2023, timestep = 200005, units = real

40 atoms
4 atom types

-15 15 xlo xhi
-15 15 ylo yhi
-15 15 zlo zhi

Masses

1 15.9994
2 1.00794
3 15.9994
4 15.9994

Atoms # charge

37 2 0.1359348581825749 4.608969 -3.8286 1.439678 0 0 0
2 3 -0.6563453000785162 -4.093572 -1.399029 1.232661 0 0 0
12 1 -0.198161808716947 -3.716933 -0.800485 -1.469755 0 0 0
17 1 -0.05648162141122761 -4.63815 0.394721 -1.456949 0 0 0
19 1 -0.2321330080156134 -5.920806 0.372055 -1.088332 0 0 0
24 2 0.1159643978594218 -3.266383 -0.903905 -2.471505 0 0 0
25 2 0.1696590721805141 -4.296793 -1.713952 -1.267466 0 0 0
31 2 0.1319524731779111 -4.175928 1.346007 -1.750676 0 0 0
34 2 0.310753582824421 -4.133634 -1.554311 2.185145 0 0 0
35 2 0.130273903567091 -6.532081 1.279261 -1.08624 0 0 0
36 2 0.1580912905475362 -6.402135 -0.556626 -0.765117 0 0 0
1 3 -0.6584134833468911 0.17169 2.057246 -1.802725 0 0 0
3 1 -0.02973489115238353 1.050346 0.444506 -0.274697 0 0 0
4 1 0.05007437595342672 -0.305395 -0.008963 0.123537 0 0 0
5 1 -0.001367841165195758 -2.604705 -0.656007 -0.45342 0 0 0
6 1 -0.1116429308755518 -1.339462 -0.192201 -0.812935 0 0 0
8 1 -0.1210116020095302 2.187003 -0.132062 0.311259 0 0 0
9 1 0.2652976593940247 1.257724 1.472379 -1.224712 0 0 0
10 1 -0.09209348645690474 -0.586309 -0.30619 1.466332 0 0 0
11 1 0.2621744815507729 -2.854163 -0.945741 0.902383 0 0 0
15 1 -0.151948422309152 -1.842972 -0.770883 1.852322 0 0 0
16 1 -0.1644592866929629 2.556443 1.878716 -1.546186 0 0 0
21 2 0.1708929564271502 -1.148607 0.030136 -1.86322 0 0 0
22 2 0.1828586715841958 2.04281 -0.949452 1.021547 0 0 0
23 2 0.1911845958267735 0.182952 -0.156 2.226689 0 0 0
29 2 0.1496743443701403 -2.046613 -0.992006 2.905191 0 0 0
30 2 0.1262062245085269 2.698269 2.677347 -2.281971 0 0 0
33 2 0.3087531359375831 0.470608 2.763201 -2.390447 0 0 0
7 1 0.03622184718932452 3.494118 0.268234 0.005916 0 0 0
13 1 -0.2299346905290597 4.679642 -0.392949 0.686038 0 0 0
14 1 -0.1210884538241017 3.66369 1.284465 -0.938877 0 0 0
18 1 -0.07768864725072423 4.666704 -1.892876 0.565789 0 0 0
20 1 -0.2346216219507354 4.6241 -2.745812 1.592897 0 0 0
26 2 0.1153933697206686 5.607406 0.003244 0.237321 0 0 0
27 2 0.1516836865040969 4.705088 -0.115308 1.754873 0 0 0
28 2 0.1107744912970646 4.669291 1.619038 -1.208331 0 0 0
32 2 0.1167741644704212 4.673208 -2.284922 -0.459296 0 0 0
38 2 0.1712913553003906 4.60538 -2.389875 2.628982 0 0 0
40 4 -0.2345662991195555 1.8102503370765755 -1.022358241757175 3.614087206418094 0 0 0
39 4 -0.190191543468978 1.5320455441308911 -2.182295068349559 3.6753370618670114 0 0 0

Velocities

37 0 0 0
2 0 0 0
12 0 0 0
17 0 0 0
19 0 0 0
24 0 0 0
25 0 0 0
31 0 0 0
34 0 0 0
35 0 0 0
36 0 0 0
1 0 0 0
3 0 0 0
4 0 0 0
5 0 0 0
6 0 0 0
8 0 0 0
9 0 0 0
10 0 0 0
11 0 0 0
15 0 0 0
16 0 0 0
21 0 0 0
22 0 0 0
23 0 0 0
29 0 0 0
30 0 0 0
33 0 0 0
7 0 0 0
13 0 0 0
14 0 0 0
18 0 0 0
20 0 0 0
26 0 0 0
27 0 0 0
28 0 0 0
32 0 0 0
38 0 0 0
40 0.003533762636585462 -0.0017317764219236128 -0.000590561437468346
39 -0.0002313913283054921 -0.0007654683337227386 -0.0009514249733965783
