LAMMPS data file via write_data, version 2 Aug 2023, timestep = 4, units = real

40 atoms
4 atom types

-15 15 xlo xhi
-15 15 ylo yhi
-15 15 zlo zhi

Masses

1 15.9994
2 1.00794
3 15.9994
4 15.9994

Atoms # charge

37 2 0.1435769762189183 4.608969 -3.8286 1.439678 0 0 0
2 3 -0.6552197006998294 -4.093572 -1.399029 1.232661 0 0 0
12 1 -0.1979373710350173 -3.716933 -0.800485 -1.469755 0 0 0
17 1 -0.05641602739995534 -4.63815 0.394721 -1.456949 0 0 0
19 1 -0.2321549709745007 -5.920806 0.372055 -1.088332 0 0 0
24 2 0.1163740277922277 -3.266383 -0.903905 -2.471505 0 0 0
25 2 0.1700306878708935 -4.296793 -1.713952 -1.267466 0 0 0
31 2 0.1323656422410101 -4.175928 1.346007 -1.750676 0 0 0
34 2 0.3117645955568039 -4.133634 -1.554311 2.185145 0 0 0
35 2 0.1304707659812653 -6.532081 1.279261 -1.08624 0 0 0
36 2 0.1581059998850416 -6.402135 -0.556626 -0.765117 0 0 0
1 3 -0.6577412322085571 0.17169 2.057246 -1.802725 0 0 0
3 1 -0.03098244919057971 1.050346 0.444506 -0.274697 0 0 0
4 1 0.050047373237517 -0.305395 -0.008963 0.123537 0 0 0
5 1 -0.0007399144501509906 -2.604705 -0.656007 -0.45342 0 0 0
6 1 -0.110553187156351 -1.339462 -0.192201 -0.812935 0 0 0
8 1 -0.1268339893496514 2.187003 -0.132062 0.311259 0 0 0
9 1 0.2644440156051421 1.257724 1.472379 -1.224712 0 0 0
10 1 -0.09319840490840774 -0.586309 -0.30619 1.466332 0 0 0
11 1 0.2630776692930263 -2.854163 -0.945741 0.902383 0 0 0
15 1 -0.1514872541964251 -1.842972 -0.770883 1.852322 0 0 0
16 1 -0.1640670702317047 2.556443 1.878716 -1.546186 0 0 0
21 2 0.171800983374795 -1.148607 0.030136 -1.86322 0 0 0
22 2 0.1738873162038304 2.04281 -0.949452 1.021547 0 0 0
23 2 0.1640924954298874 0.182952 -0.156 2.226689 0 0 0
29 2 0.1481659344071632 -2.046613 -0.992006 2.905191 0 0 0
30 2 0.1273837659699341 2.698269 2.677347 -2.281971 0 0 0
33 2 0.3097036105895696 0.470608 2.763201 -2.390447 0 0 0
7 1 0.03353732967101042 3.494118 0.268234 0.005916 0 0 0
13 1 -0.2315145045766506 4.679642 -0.392949 0.686038 0 0 0
14 1 -0.1214081841148784 3.66369 1.284465 -0.938877 0 0 0
18 1 -0.07884579634099395 4.666704 -1.892876 0.565789 0 0 0
20 1 -0.2275229094171459 4.6241 -2.745812 1.592897 0 0 0
26 2 0.115741711638075 5.607406 0.003244 0.237321 0 0 0
27 2 0.143067577512431 4.705088 -0.115308 1.754873 0 0 0
28 2 0.1115517321558862 4.669291 1.619038 -1.208331 0 0 0
32 2 0.1186594890934309 4.673208 -2.284922 -0.459296 0 0 0
38 2 0.1802682729071815 4.60538 -2.389875 2.628982 0 0 0
39 4 -0.1910582085043705 1.1901756149669496 -2.3763863588257386 3.6894908124515884 0 0 0
40 4 -0.2104367978798711 2.3785744087428635 -2.3749588524136933 3.744675782400487 0 0 0

Velocities

37 0 0 0
2 0 0 0
12 0 0 0
17 0 0 0
19 0 0 0
24 0 0 0
25 0 0 0
31 0 0 0
34 0 0 0
35 0 0 0
36 0 0 0
1 0 0 0
3 0 0 0
4 0 0 0
5 0 0 0
6 0 0 0
8 0 0 0
9 0 0 0
10 0 0 0
11 0 0 0
15 0 0 0
16 0 0 0
21 0 0 0
22 0 0 0
23 0 0 0
29 0 0 0
30 0 0 0
33 0 0 0
7 0 0 0
13 0 0 0
14 0 0 0
18 0 0 0
20 0 0 0
26 0 0 0
27 0 0 0
28 0 0 0
32 0 0 0
38 0 0 0
39 0 0 0
40 0 0 0
