
     Program PWSCF v.7.3.1 starts on 10Feb2025 at 18:20:14 

     This program is part of the open-source Quantum ESPRESSO suite
     for quantum simulation of materials; please cite
         "P. Giannozzi et al., J. Phys.:Condens. Matter 21 395502 (2009);
         "P. Giannozzi et al., J. Phys.:Condens. Matter 29 465901 (2017);
         "P. Giannozzi et al., J. Chem. Phys. 152 154105 (2020);
          URL http://www.quantum-espresso.org", 
     in publications or presentations arising from this work. More details at
     http://www.quantum-espresso.org/quote

     Parallel version (MPI), running on    10 processors

     MPI processes distributed on     1 nodes
     103556 MiB available memory on the printing compute node when the environment starts

     Waiting for input...
     Reading input from standard input
Warning: card &CELL ignored
Warning: card / ignored

     Current dimensions of program PWSCF are:
     Max number of different atomic species (ntypx) = 10
     Max number of k-points (npk) =  40000
     Max angular momentum in pseudopotentials (lmaxx) =  4

     gamma-point specific algorithms are used
     Found identity + ( -0.0000  0.2000  0.0000) symmetry
     This is a supercell, fractional translations are disabled

     R & G space division:  proc/nbgrp/npool/nimage =      10
     Subspace diagonalization in iterative solution of the eigenvalue problem:
     one sub-group per band group will be used
     custom distributed-memory algorithm (size of sub-group:  3*  3 procs)


     Parallelization info
     --------------------
     sticks:   dense  smooth     PW     G-vecs:    dense   smooth      PW
     Min        2099     842    210               560824   141902   17741
     Max        2102     844    212               560846   141916   17752
     Sum       21007    8431   2107              5608343  1419103  177445

     Using Slab Decomposition



     bravais-lattice index     =            4
     lattice parameter (alat)  =      24.7021  a.u.
     unit-cell volume          =   29705.0970 (a.u.)^3
     number of atoms/cell      =          200
     number of atomic types    =            1
     number of electrons       =      4000.00
     number of Kohn-Sham states=         2000
     kinetic-energy cutoff     =      50.0000  Ry
     charge density cutoff     =     500.0000  Ry
     scf convergence threshold =      1.0E-06
     mixing beta               =       0.7000
     number of iterations used =            8  plain     mixing
     energy convergence thresh.=      1.0E-04
     force convergence thresh. =      1.0E-03
     Exchange-correlation= SLA  PW   PBE  PBE
                           (   1   4   3   4   0   0   0)
     nstep                     =          100


     celldm(1)=  24.702122  celldm(2)=   0.000000  celldm(3)=   2.275609
     celldm(4)=   0.000000  celldm(5)=   0.000000  celldm(6)=   0.000000

     crystal axes: (cart. coord. in units of alat)
               a(1) = (   1.000000   0.000000   0.000000 )  
               a(2) = (  -0.500000   0.866025   0.000000 )  
               a(3) = (   0.000000   0.000000   2.275609 )  

     reciprocal axes: (cart. coord. in units 2 pi/alat)
               b(1) = (  1.000000  0.577350 -0.000000 )  
               b(2) = (  0.000000  1.154701  0.000000 )  
               b(3) = (  0.000000 -0.000000  0.439443 )  


     PseudoPot. # 1 for Zn read from file:
     /home/ys/qe-7.3.1/pseudo/Standard_solid-state_pseudopotentials_SSSP_1.3.0_PBE_efficiency/Zn_pbe_v1.uspp.F.UPF
     MD5 check sum: df62231357ef9e81f77b2b3087fa5675
     Pseudo is Ultrasoft, Zval = 20.0
     Generated by new atomic code, or converted to UPF format
     Using radial grid of  943 points,  6 beta functions with: 
                l(1) =   0
                l(2) =   0
                l(3) =   1
                l(4) =   1
                l(5) =   2
                l(6) =   2
     Q(r) pseudized with  8 coefficients,  rinner =    1.100   1.100   1.100
                                                       1.100   1.100

     atomic species   valence    mass     pseudopotential
     Zn               20.00    65.39000     Zn( 1.00)

     12 Sym. Ops. (no inversion) found



   Cartesian axes

     site n.     atom                  positions (alat units)
         1        Zn     tau(   1) = (   0.0000005   0.1154698   0.0931999  )
         2        Zn     tau(   2) = (  -0.0999995   0.2886749   0.0931999  )
         3        Zn     tau(   3) = (  -0.1999995   0.4618799   0.0931999  )
         4        Zn     tau(   4) = (  -0.2999995   0.6350850   0.0931999  )
         5        Zn     tau(   5) = (  -0.3999995   0.8082901   0.0931999  )
         6        Zn     tau(   6) = (   0.2000005   0.1154698   0.0931999  )
         7        Zn     tau(   7) = (   0.1000005   0.2886749   0.0931999  )
         8        Zn     tau(   8) = (   0.0000005   0.4618799   0.0931999  )
         9        Zn     tau(   9) = (  -0.0999995   0.6350850   0.0931999  )
        10        Zn     tau(  10) = (  -0.1999995   0.8082901   0.0931999  )
        11        Zn     tau(  11) = (   0.4000005   0.1154698   0.0931999  )
        12        Zn     tau(  12) = (   0.3000005   0.2886749   0.0931999  )
        13        Zn     tau(  13) = (   0.2000005   0.4618799   0.0931999  )
        14        Zn     tau(  14) = (   0.1000005   0.6350850   0.0931999  )
        15        Zn     tau(  15) = (   0.0000005   0.8082901   0.0931999  )
        16        Zn     tau(  16) = (   0.6000005   0.1154698   0.0931999  )
        17        Zn     tau(  17) = (   0.5000005   0.2886749   0.0931999  )
        18        Zn     tau(  18) = (   0.4000005   0.4618799   0.0931999  )
        19        Zn     tau(  19) = (   0.3000005   0.6350850   0.0931999  )
        20        Zn     tau(  20) = (   0.2000005   0.8082901   0.0931999  )
        21        Zn     tau(  21) = (   0.8000005   0.1154698   0.0931999  )
        22        Zn     tau(  22) = (   0.7000005   0.2886749   0.0931999  )
        23        Zn     tau(  23) = (   0.6000005   0.4618799   0.0931999  )
        24        Zn     tau(  24) = (   0.5000005   0.6350850   0.0931999  )
        25        Zn     tau(  25) = (   0.4000005   0.8082901   0.0931999  )
        26        Zn     tau(  26) = (   0.0000005   0.1154698   0.2795997  )
        27        Zn     tau(  27) = (  -0.0999995   0.2886749   0.2795997  )
        28        Zn     tau(  28) = (  -0.1999995   0.4618799   0.2795997  )
        29        Zn     tau(  29) = (  -0.2999995   0.6350850   0.2795997  )
        30        Zn     tau(  30) = (  -0.3999995   0.8082901   0.2795997  )
        31        Zn     tau(  31) = (   0.2000005   0.1154698   0.2795997  )
        32        Zn     tau(  32) = (   0.1000005   0.2886749   0.2795997  )
        33        Zn     tau(  33) = (   0.0000005   0.4618799   0.2795997  )
        34        Zn     tau(  34) = (  -0.0999995   0.6350850   0.2795997  )
        35        Zn     tau(  35) = (  -0.1999995   0.8082901   0.2795997  )
        36        Zn     tau(  36) = (   0.4000005   0.1154698   0.2795997  )
        37        Zn     tau(  37) = (   0.3000005   0.2886749   0.2795997  )
        38        Zn     tau(  38) = (   0.2000005   0.4618799   0.2795997  )
        39        Zn     tau(  39) = (   0.1000005   0.6350850   0.2795997  )
        40        Zn     tau(  40) = (   0.0000005   0.8082901   0.2795997  )
        41        Zn     tau(  41) = (   0.6000005   0.1154698   0.2795997  )
        42        Zn     tau(  42) = (   0.5000005   0.2886749   0.2795997  )
        43        Zn     tau(  43) = (   0.4000005   0.4618799   0.2795997  )
        44        Zn     tau(  44) = (   0.3000005   0.6350850   0.2795997  )
        45        Zn     tau(  45) = (   0.2000005   0.8082901   0.2795997  )
        46        Zn     tau(  46) = (   0.8000005   0.1154698   0.2795997  )
        47        Zn     tau(  47) = (   0.7000005   0.2886749   0.2795997  )
        48        Zn     tau(  48) = (   0.6000005   0.4618799   0.2795997  )
        49        Zn     tau(  49) = (   0.5000005   0.6350850   0.2795997  )
        50        Zn     tau(  50) = (   0.4000005   0.8082901   0.2795997  )
        51        Zn     tau(  51) = (   0.0000005   0.1154698   0.4659995  )
        52        Zn     tau(  52) = (  -0.0999995   0.2886749   0.4659995  )
        53        Zn     tau(  53) = (  -0.1999995   0.4618799   0.4659995  )
        54        Zn     tau(  54) = (  -0.2999995   0.6350850   0.4659995  )
        55        Zn     tau(  55) = (  -0.3999995   0.8082901   0.4659995  )
        56        Zn     tau(  56) = (   0.2000005   0.1154698   0.4659995  )
        57        Zn     tau(  57) = (   0.1000005   0.2886749   0.4659995  )
        58        Zn     tau(  58) = (   0.0000005   0.4618799   0.4659995  )
        59        Zn     tau(  59) = (  -0.0999995   0.6350850   0.4659995  )
        60        Zn     tau(  60) = (  -0.1999995   0.8082901   0.4659995  )
        61        Zn     tau(  61) = (   0.4000005   0.1154698   0.4659995  )
        62        Zn     tau(  62) = (   0.3000005   0.2886749   0.4659995  )
        63        Zn     tau(  63) = (   0.2000005   0.4618799   0.4659995  )
        64        Zn     tau(  64) = (   0.1000005   0.6350850   0.4659995  )
        65        Zn     tau(  65) = (   0.0000005   0.8082901   0.4659995  )
        66        Zn     tau(  66) = (   0.6000005   0.1154698   0.4659995  )
        67        Zn     tau(  67) = (   0.5000005   0.2886749   0.4659995  )
        68        Zn     tau(  68) = (   0.4000005   0.4618799   0.4659995  )
        69        Zn     tau(  69) = (   0.3000005   0.6350850   0.4659995  )
        70        Zn     tau(  70) = (   0.2000005   0.8082901   0.4659995  )
        71        Zn     tau(  71) = (   0.8000005   0.1154698   0.4659995  )
        72        Zn     tau(  72) = (   0.7000005   0.2886749   0.4659995  )
        73        Zn     tau(  73) = (   0.6000005   0.4618799   0.4659995  )
        74        Zn     tau(  74) = (   0.5000005   0.6350850   0.4659995  )
        75        Zn     tau(  75) = (   0.4000005   0.8082901   0.4659995  )
        76        Zn     tau(  76) = (   0.0000005   0.1154698   0.6523993  )
        77        Zn     tau(  77) = (  -0.0999995   0.2886749   0.6523993  )
        78        Zn     tau(  78) = (  -0.1999995   0.4618799   0.6523993  )
        79        Zn     tau(  79) = (  -0.2999995   0.6350850   0.6523993  )
        80        Zn     tau(  80) = (  -0.3999995   0.8082901   0.6523993  )
        81        Zn     tau(  81) = (   0.2000005   0.1154698   0.6523993  )
        82        Zn     tau(  82) = (   0.1000005   0.2886749   0.6523993  )
        83        Zn     tau(  83) = (   0.0000005   0.4618799   0.6523993  )
        84        Zn     tau(  84) = (  -0.0999995   0.6350850   0.6523993  )
        85        Zn     tau(  85) = (  -0.1999995   0.8082901   0.6523993  )
        86        Zn     tau(  86) = (   0.4000005   0.1154698   0.6523993  )
        87        Zn     tau(  87) = (   0.3000005   0.2886749   0.6523993  )
        88        Zn     tau(  88) = (   0.2000005   0.4618799   0.6523993  )
        89        Zn     tau(  89) = (   0.1000005   0.6350850   0.6523993  )
        90        Zn     tau(  90) = (   0.0000005   0.8082901   0.6523993  )
        91        Zn     tau(  91) = (   0.6000005   0.1154698   0.6523993  )
        92        Zn     tau(  92) = (   0.5000005   0.2886749   0.6523993  )
        93        Zn     tau(  93) = (   0.4000005   0.4618799   0.6523993  )
        94        Zn     tau(  94) = (   0.3000005   0.6350850   0.6523993  )
        95        Zn     tau(  95) = (   0.2000005   0.8082901   0.6523993  )
        96        Zn     tau(  96) = (   0.8000005   0.1154698   0.6523993  )
        97        Zn     tau(  97) = (   0.7000005   0.2886749   0.6523993  )
        98        Zn     tau(  98) = (   0.6000005   0.4618799   0.6523993  )
        99        Zn     tau(  99) = (   0.5000005   0.6350850   0.6523993  )
       100        Zn     tau( 100) = (   0.4000005   0.8082901   0.6523993  )
       101        Zn     tau( 101) = (   0.0999995   0.0577353   0.0931999  )
       102        Zn     tau( 102) = (  -0.0000005   0.2309403   0.0931999  )
       103        Zn     tau( 103) = (  -0.1000005   0.4041454   0.0931999  )
       104        Zn     tau( 104) = (  -0.2000005   0.5773505   0.0931999  )
       105        Zn     tau( 105) = (  -0.3000005   0.7505555   0.0931999  )
       106        Zn     tau( 106) = (   0.2999995   0.0577353   0.0931999  )
       107        Zn     tau( 107) = (   0.1999995   0.2309403   0.0931999  )
       108        Zn     tau( 108) = (   0.0999995   0.4041454   0.0931999  )
       109        Zn     tau( 109) = (  -0.0000005   0.5773505   0.0931999  )
       110        Zn     tau( 110) = (  -0.1000005   0.7505555   0.0931999  )
       111        Zn     tau( 111) = (   0.4999995   0.0577353   0.0931999  )
       112        Zn     tau( 112) = (   0.3999995   0.2309403   0.0931999  )
       113        Zn     tau( 113) = (   0.2999995   0.4041454   0.0931999  )
       114        Zn     tau( 114) = (   0.1999995   0.5773505   0.0931999  )
       115        Zn     tau( 115) = (   0.0999995   0.7505555   0.0931999  )
       116        Zn     tau( 116) = (   0.6999995   0.0577353   0.0931999  )
       117        Zn     tau( 117) = (   0.5999995   0.2309403   0.0931999  )
       118        Zn     tau( 118) = (   0.4999995   0.4041454   0.0931999  )
       119        Zn     tau( 119) = (   0.3999995   0.5773505   0.0931999  )
       120        Zn     tau( 120) = (   0.2999995   0.7505555   0.0931999  )
       121        Zn     tau( 121) = (   0.8999995   0.0577353   0.0931999  )
       122        Zn     tau( 122) = (   0.7999995   0.2309403   0.0931999  )
       123        Zn     tau( 123) = (   0.6999995   0.4041454   0.0931999  )
       124        Zn     tau( 124) = (   0.5999995   0.5773505   0.0931999  )
       125        Zn     tau( 125) = (   0.4999995   0.7505555   0.0931999  )
       126        Zn     tau( 126) = (   0.0999995   0.0577353   0.2795997  )
       127        Zn     tau( 127) = (  -0.0000005   0.2309403   0.2795997  )
       128        Zn     tau( 128) = (  -0.1000005   0.4041454   0.2795997  )
       129        Zn     tau( 129) = (  -0.2000005   0.5773505   0.2795997  )
       130        Zn     tau( 130) = (  -0.3000005   0.7505555   0.2795997  )
       131        Zn     tau( 131) = (   0.2999995   0.0577353   0.2795997  )
       132        Zn     tau( 132) = (   0.1999995   0.2309403   0.2795997  )
       133        Zn     tau( 133) = (   0.0999995   0.4041454   0.2795997  )
       134        Zn     tau( 134) = (  -0.0000005   0.5773505   0.2795997  )
       135        Zn     tau( 135) = (  -0.1000005   0.7505555   0.2795997  )
       136        Zn     tau( 136) = (   0.4999995   0.0577353   0.2795997  )
       137        Zn     tau( 137) = (   0.3999995   0.2309403   0.2795997  )
       138        Zn     tau( 138) = (   0.2999995   0.4041454   0.2795997  )
       139        Zn     tau( 139) = (   0.1999995   0.5773505   0.2795997  )
       140        Zn     tau( 140) = (   0.0999995   0.7505555   0.2795997  )
       141        Zn     tau( 141) = (   0.6999995   0.0577353   0.2795997  )
       142        Zn     tau( 142) = (   0.5999995   0.2309403   0.2795997  )
       143        Zn     tau( 143) = (   0.4999995   0.4041454   0.2795997  )
       144        Zn     tau( 144) = (   0.3999995   0.5773505   0.2795997  )
       145        Zn     tau( 145) = (   0.2999995   0.7505555   0.2795997  )
       146        Zn     tau( 146) = (   0.8999995   0.0577353   0.2795997  )
       147        Zn     tau( 147) = (   0.7999995   0.2309403   0.2795997  )
       148        Zn     tau( 148) = (   0.6999995   0.4041454   0.2795997  )
       149        Zn     tau( 149) = (   0.5999995   0.5773505   0.2795997  )
       150        Zn     tau( 150) = (   0.4999995   0.7505555   0.2795997  )
       151        Zn     tau( 151) = (   0.0999995   0.0577353   0.4659995  )
       152        Zn     tau( 152) = (  -0.0000005   0.2309403   0.4659995  )
       153        Zn     tau( 153) = (  -0.1000005   0.4041454   0.4659995  )
       154        Zn     tau( 154) = (  -0.2000005   0.5773505   0.4659995  )
       155        Zn     tau( 155) = (  -0.3000005   0.7505555   0.4659995  )
       156        Zn     tau( 156) = (   0.2999995   0.0577353   0.4659995  )
       157        Zn     tau( 157) = (   0.1999995   0.2309403   0.4659995  )
       158        Zn     tau( 158) = (   0.0999995   0.4041454   0.4659995  )
       159        Zn     tau( 159) = (  -0.0000005   0.5773505   0.4659995  )
       160        Zn     tau( 160) = (  -0.1000005   0.7505555   0.4659995  )
       161        Zn     tau( 161) = (   0.4999995   0.0577353   0.4659995  )
       162        Zn     tau( 162) = (   0.3999995   0.2309403   0.4659995  )
       163        Zn     tau( 163) = (   0.2999995   0.4041454   0.4659995  )
       164        Zn     tau( 164) = (   0.1999995   0.5773505   0.4659995  )
       165        Zn     tau( 165) = (   0.0999995   0.7505555   0.4659995  )
       166        Zn     tau( 166) = (   0.6999995   0.0577353   0.4659995  )
       167        Zn     tau( 167) = (   0.5999995   0.2309403   0.4659995  )
       168        Zn     tau( 168) = (   0.4999995   0.4041454   0.4659995  )
       169        Zn     tau( 169) = (   0.3999995   0.5773505   0.4659995  )
       170        Zn     tau( 170) = (   0.2999995   0.7505555   0.4659995  )
       171        Zn     tau( 171) = (   0.8999995   0.0577353   0.4659995  )
       172        Zn     tau( 172) = (   0.7999995   0.2309403   0.4659995  )
       173        Zn     tau( 173) = (   0.6999995   0.4041454   0.4659995  )
       174        Zn     tau( 174) = (   0.5999995   0.5773505   0.4659995  )
       175        Zn     tau( 175) = (   0.4999995   0.7505555   0.4659995  )
       176        Zn     tau( 176) = (   0.0999995   0.0577353   0.6523993  )
       177        Zn     tau( 177) = (  -0.0000005   0.2309403   0.6523993  )
       178        Zn     tau( 178) = (  -0.1000005   0.4041454   0.6523993  )
       179        Zn     tau( 179) = (  -0.2000005   0.5773505   0.6523993  )
       180        Zn     tau( 180) = (  -0.3000005   0.7505555   0.6523993  )
       181        Zn     tau( 181) = (   0.2999995   0.0577353   0.6523993  )
       182        Zn     tau( 182) = (   0.1999995   0.2309403   0.6523993  )
       183        Zn     tau( 183) = (   0.0999995   0.4041454   0.6523993  )
       184        Zn     tau( 184) = (  -0.0000005   0.5773505   0.6523993  )
       185        Zn     tau( 185) = (  -0.1000005   0.7505555   0.6523993  )
       186        Zn     tau( 186) = (   0.4999995   0.0577353   0.6523993  )
       187        Zn     tau( 187) = (   0.3999995   0.2309403   0.6523993  )
       188        Zn     tau( 188) = (   0.2999995   0.4041454   0.6523993  )
       189        Zn     tau( 189) = (   0.1999995   0.5773505   0.6523993  )
       190        Zn     tau( 190) = (   0.0999995   0.7505555   0.6523993  )
       191        Zn     tau( 191) = (   0.6999995   0.0577353   0.6523993  )
       192        Zn     tau( 192) = (   0.5999995   0.2309403   0.6523993  )
       193        Zn     tau( 193) = (   0.4999995   0.4041454   0.6523993  )
       194        Zn     tau( 194) = (   0.3999995   0.5773505   0.6523993  )
       195        Zn     tau( 195) = (   0.2999995   0.7505555   0.6523993  )
       196        Zn     tau( 196) = (   0.8999995   0.0577353   0.6523993  )
       197        Zn     tau( 197) = (   0.7999995   0.2309403   0.6523993  )
       198        Zn     tau( 198) = (   0.6999995   0.4041454   0.6523993  )
       199        Zn     tau( 199) = (   0.5999995   0.5773505   0.6523993  )
       200        Zn     tau( 200) = (   0.4999995   0.7505555   0.6523993  )

     number of k points=     1
                       cart. coord. in units 2pi/alat
        k(    1) = (   0.0000000   0.0000000   0.0000000), wk =   2.0000000

     Dense  grid:  2804172 G-vectors     FFT dimensions: ( 180, 180, 405)

     Smooth grid:   709552 G-vectors     FFT dimensions: ( 120, 120, 256)

     Estimated max dynamical RAM per process >       4.22 GB

     Estimated total dynamical RAM >      42.22 GB

     Initial potential from superposition of free atoms

     starting charge    3999.9718, renormalised to    4000.0000

     negative rho (up, down):  5.238E-03 0.000E+00
     Starting wfcs are 2600 randomized atomic wfcs

     total cpu time spent up to now is      776.5 secs

     Self-consistent Calculation

     iteration #  1     ecut=    50.00 Ry     beta= 0.70
     Davidson diagonalization with overlap
     ethr =  1.00E-02,  avg # of iterations =  3.0

     Threshold (ethr) on eigenvalues was too large:
     Diagonalizing with lowered threshold

     Davidson diagonalization with overlap
     ethr =  6.64E-05,  avg # of iterations =  5.0

     negative rho (up, down):  2.347E-03 0.000E+00

     total cpu time spent up to now is     5921.3 secs

     total energy              =  -92056.08149235 Ry
     estimated scf accuracy    <       2.67211002 Ry

     iteration #  2     ecut=    50.00 Ry     beta= 0.70
     Davidson diagonalization with overlap
