
                                 *****************
                                 * O   R   C   A *
                                 *****************

                                            #,                                       
                                            ###                                      
                                            ####                                     
                                            #####                                    
                                            ######                                   
                                           ########,                                 
                                     ,,################,,,,,                         
                               ,,#################################,,                 
                          ,,##########################################,,             
                       ,#########################################, ''#####,          
                    ,#############################################,,   '####,        
                  ,##################################################,,,,####,       
                ,###########''''           ''''###############################       
              ,#####''   ,,,,##########,,,,          '''####'''          '####       
            ,##' ,,,,###########################,,,                        '##       
           ' ,,###''''                  '''############,,,                           
         ,,##''                                '''############,,,,        ,,,,,,###''
      ,#''                                            '''#######################'''  
     '                                                          ''''####''''         
             ,#######,   #######,   ,#######,      ##                                
            ,#'     '#,  ##    ##  ,#'     '#,    #''#        ,####,   ,####,        
            ##       ##  ##   ,#'  ##            #'  '#       #'       #'  '#        
            ##       ##  #######   ##           ,######,      #####,   #    #        
            '#,     ,#'  ##    ##  '#,     ,#' ,#      #,     #,   #   #,  ,#        
             '#######'   ##     ##  '#######'  #'      '#     '####' # '####'        



                #########################################################
                #                        -***-                          #
                #          Department of theory and spectroscopy        #
                #                                                       #
                #                      Frank Neese                      #
                #                                                       #
                #     Directorship, Architecture, Infrastructure        #
                #                    SHARK, DRIVERS                     #
                #        Core code/Algorithms in most modules           #
                #                                                       #
                #        Max Planck Institute fuer Kohlenforschung      #
                #                Kaiser Wilhelm Platz 1                 #
                #                 D-45470 Muelheim/Ruhr                 #
                #                      Germany                          #
                #                                                       #
                #                  All rights reserved                  #
                #                        -***-                          #
                #########################################################


                         Program Version 6.0.1  -  RELEASE   -


 With contributions from (in alphabetic order):
[Max-Planck-Institut fuer Kohlenforschung]                               
  Daniel Aravena         : Magnetic Suceptibility                        
  Michael Atanasov       : Ab Initio Ligand Field Theory (pilot matlab implementation)
  Alexander A. Auer      : GIAO ZORA, VPT2 properties, NMR spectrum      
  Ute Becker             : All parallelization in ORCA, NUMFREQ, NUMCALC 
  Giovanni Bistoni       : ED, misc. LED, open-shell LED, HFLD           
  Martin Brehm           : Molecular dynamics                            
  Dmytro Bykov           : pre 5.0 version of the SCF Hessian            
  Marcos Casanova-Páez   : Triplet and SCS-CIS(D). UHF-(DLPNO)-IP/EA/STEOM-CCSD. UHF-CVS-IP/STEOM-CCSD   
  Vijay G. Chilkuri      : MRCI spin determinant printing, contributions to CSF-ICE 
  Pauline Colinet        : FMM embedding                                 
  Dipayan Datta          : RHF DLPNO-CCSD density                        
  Achintya Kumar Dutta   : EOM-CC, STEOM-CC                              
  Nicolas Foglia         : Exact transition moments, OPA infrastructure, MCD improvements    
  Dmitry Ganyushin       : Spin-Orbit,Spin-Spin,Magnetic field MRCI      
  Miquel Garcia-Rates    : C-PCM and meta-GGA Hessian, CCSD/C-PCM, Gaussian charge scheme 
  Tiago L. C. Gouveia    : GS-ROHF, GS-ROCIS                             
  Yang Guo               : DLPNO-NEVPT2, F12-NEVPT2, CIM, IAO-localization        
  Andreas Hansen         : Spin unrestricted coupled pair/coupled cluster methods 
  Ingolf Harden          : AUTO-CI MPn and infrastructure                
  Benjamin Helmich-Paris : MC-RPA, TRAH-(SCF,CASSCF), AVAS, COSX integrals, SCF dyn. polar. 
  Lee Huntington         : MR-EOM, pCC                                   
  Robert Izsak           : Overlap fitted RIJCOSX, COSX-SCS-MP3, EOM     
  Riya Kayal             : Wick's Theorem for AUTO-CI, AUTO-CI UHF-CCSDT 
  Emily Kempfer          : AUTO-CI, RHF CISDT and CCSDT                  
  Christian Kollmar      : KDIIS, OOCD, Brueckner-CCSD(T), CCSD density, CASPT2, CASPT2-K, improved NEVPT2 
  Axel Koslowski         : Symmetry handling                             
  Simone Kossmann        : meta-GGA functionals, TD-DFT gradient, OOMP2, (MP2 Hessian; deprecated post 5.0) 
  Lucas Lang             : DCDCAS                                        
  Marvin Lechner         : AUTO-CI (C++ implementation), FIC-MRCC        
  Spencer Leger          : CASSCF response                               
  Dagmar Lenk            : GEPOL surface, SMD, ORCA-2-JSON               
  Dimitrios Liakos       : Extrapolation schemes; Compound Job, initial MDCI parallelization 
  Dimitrios Manganas     : Further ROCIS development; embedding schemes. LFT, Crystal Embedding 
  Dimitrios Pantazis     : SARC Basis sets                               
  Anastasios Papadopoulos: AUTO-CI, single reference methods and gradients 
  Taras Petrenko         : pre 6.0 DFT Hessian and TD-DFT gradient, (ASA, deprecated), ECA, 1-Electron XAS/XES, NRVS 
  Peter Pinski           : DLPNO-MP2, DLPNO-MP2 Gradient                 
  Christoph Reimann      : Effective Core Potentials                     
  Marius Retegan         : Local ZFS, SOC                                
  Christoph Riplinger    : Optimizer, TS searches, QM/MM, DLPNO-CCSD(T), (RO)-DLPNO pert. Triples 
  Michael Roemelt        : Original ROCIS implementation                 
  Masaaki Saitow         : Open-shell DLPNO-CCSD energy and density      
  Barbara Sandhoefer     : DKH picture change effects                    
  Kantharuban Sivalingam : CASSCF convergence/infrastructure, NEVPT2 and variants, FIC-MRCI 
  Bernardo de Souza      : ESD, SOC TD-DFT                               
  Georgi L. Stoychev     : AutoAux, RI-MP2 NMR, DLPNO-MP2 response, X2C  
  Van Anh Tran           : RI-MP2 g-tensors                              
  Willem Van den Heuvel  : Paramagnetic NMR                              
  Zikuan Wang            : NOTCH, Electric field optimization            
  Frank Wennmohs         : Technical directorship and infrastructure     
  Hang Xu                : AUTO-CI-Response properties                   
                                                                         
[FACCTs GmbH]                                                            
  Markus Bursch, Miquel Garcia-Rates, Christoph Riplinger, Bernardo de Souza, Georgi L. Stoychev 
                                                                 
  APM, Basis sets (HGBS, AHGBS, def-TZVP (Ac-Lr), def2-XVPD (La-Lu)), CI-OPT, improved COSX, DLPNO-Multilevel,           
  DOCKER, DRACO, updates on ESD, GOAT, IRC, LR-CPCM, MBIS, meta-GGA TD-DFT gradient, ML-optimized integration grids, 
  MM, NACMEs, nearIR, NEB, NEB-TS, NL-DFT gradient (VV10), 2- and 3-layer-ONIOM, interface openCOSMO-RS, QMMM,   
  Crystal-QMMM, SF, symmetry and pop. for TD-DFT, r2SCAN hybrids, SOLVATOR                                   
                                                                         
[Other institutions]                                                     
  V. Asgeirsson          : NEB                                           
  Christoph Bannwarth    : sTDA-DFT, sTD-DFT, PBEh-3c, B97-3c, D3        
  Sebastian Ehlert       : rSCAN, r2SCAN, r2SCAN-3c, D4, dhf basis sets  
  Marvin Friede          : D4 for Fr, Ra, Ac-Lr                          
  Lars Goerigk           : TD-DFT with DH, B97 family of functionals     
  Stefan Grimme          : VdW corrections, initial TS optimization, DFT functionals, gCP, sTDA/sTD-DF 
  Waldemar Hujo          : DFT-NL                                        
  H. Jonsson             : NEB                                           
  Holger Kruse           : gCP                                           
  Marcel Mueller         : wB97X-3c, vDZP basis set                      
  Hagen Neugebauer       : wr2SCAN                                       
  Tobias Risthaus        : range-separated hybrid DFT                    
  Lukas Wittmann         : regularized MP2, r2SCAN double-hybrids, wr2SCAN        
                                                                         
We gratefully acknowledge several colleagues who have allowed us to      
interface, adapt or use parts of their codes:                            
  Ed Valeev, F. Pavosevic, A. Kumar             : LibInt (2-el integral package), F12 methods 
  Garnet Chan, S. Sharma, J. Yang, R. Olivares  : DMRG                   
  Ulf Ekstrom                                   : XCFun DFT Library      
  Mihaly Kallay                                 : mrcc  (arbitrary order and MRCC methods)
  Frank Weinhold                                : gennbo (NPA and NBO analysis)           
  Simon Mueller                                 : openCOSMO-RS                            
  Christopher J. Cramer and Donald G. Truhlar   : smd solvation model                     
  S Lehtola, MJT Oliveira, MAL Marques          : LibXC Library                           
  Liviu Ungur et al                             : ANISO software                          


 Your calculation uses the libint2 library for the computation of 2-el integrals
 For citations please refer to: http://libint.valeyev.net

 Your ORCA version has been built with support for libXC version: 6.2.2
 For citations please refer to: https://libxc.gitlab.io

 This ORCA versions uses:
   CBLAS   interface :  Fast vector & matrix operations
   LAPACKE interface :  Fast linear algebra routines
   SCALAPACK package :  Parallel linear algebra routines
   Shared memory     :  Shared parallel matrices
   BLAS/LAPACK       :  OpenBLAS 0.3.27  USE64BITINT DYNAMIC_ARCH NO_AFFINITY SkylakeX SINGLE_THREADED
        Core in use  :  SkylakeX
   Copyright (c) 2011-2014, The OpenBLAS Project


NOTE: MaxCore=3000 MB was set to SCF,MP2,MDCI,CIPSI,MRCI and CIS
      => If you want to overwrite this, your respective input block should be placed after the MaxCore statement
Your calculation utilizes the atom-pairwise dispersion correction
with the Becke-Johnson damping scheme (D3BJ)


Warning: RI is on but no J-basis has been assigned. Assigning Def2/J (nothing to worry about!)
================================================================================

----- Orbital basis set information -----
Your calculation utilizes the basis: def2-SVP
   F. Weigend and R. Ahlrichs, Phys. Chem. Chem. Phys. 7, 3297 (2005).

----- AuxJ basis set information -----
Your calculation utilizes the auxiliary basis: def2/J
   F. Weigend, Phys. Chem. Chem. Phys. 8, 1057 (2006).

================================================================================
                                        WARNINGS
                       Please study these warnings very carefully!
================================================================================


WARNING: Geometry Optimization
  ===> : Switching off AutoStart
         For restart on a previous wavefunction, please use MOREAD

================================================================================
                                       INPUT FILE
================================================================================
NAME = 4nitroaniline_water_2_OPT.inp
|  1> ! B3LYP def2-SVP OPT TightSCF D3BJ
|  2> 
|  3> 
|  4> %maxcore 3000
|  5> 
|  6> %pal
|  7> nprocs 40
|  8> end
|  9> 
| 10> * xyz 0 1
| 11> O        2.7564475502     -0.2664297050      1.3591413044                 
| 12> O        2.7296068280     -0.7589595439     -0.7504229221                 
| 13> N        2.2031272037     -0.3232785451      0.2672795625                 
| 14> N       -3.0853383358      1.5413614751     -0.1222935851                 
| 15> C        0.8325141965      0.1602060429      0.1709997450                 
| 16> C       -1.8087790496      1.0910541413     -0.0130380810                 
| 17> C        0.1944106640      0.6632161039      1.3106062753                 
| 18> C        0.1679591560      0.1164832554     -1.0604374592                 
| 19> C       -1.1096581141      1.1224523474      1.2206754325                 
| 20> C       -1.1352444681      0.5763192999     -1.1516521164                 
| 21> H        0.7403677541      0.6825464060      2.2533561292                 
| 22> H        0.6926365008     -0.2797215205     -1.9293424762                 
| 23> H       -1.6115196202      1.5151020222      2.1088330448                 
| 24> H       -1.6632690911      0.5504613502     -2.1065318971                 
| 25> H       -3.5743745658      1.8956685723      0.6877048122                 
| 26> H       -3.5721920508      1.4581202729     -1.0128398639                 
| 27> O       -3.0265105292      4.4658345019     -0.8176385921                 
| 28> H       -2.0692194678      4.3512938082     -0.7502327127                 
| 29> H       -3.3964911645      3.6045202776     -0.5816813289                                
| 30> *           
| 31> 
| 32> 
| 33>                          ****END OF INPUT****
================================================================================

                       *****************************
                       * Geometry Optimization Run *
                       *****************************

Geometry optimization settings:
Update method            Update   .... BFGS
Choice of coordinates    CoordSys .... (2022) Redundant Internals
Initial Hessian          InHess   .... Almloef's Model
Max. no of cycles        MaxIter  .... 57

Convergence Tolerances:
Energy Change            TolE     ....  5.0000e-06 Eh
Max. Gradient            TolMAXG  ....  3.0000e-04 Eh/bohr
RMS Gradient             TolRMSG  ....  1.0000e-04 Eh/bohr
Max. Displacement        TolMAXD  ....  4.0000e-03 bohr
RMS Displacement         TolRMSD  ....  2.0000e-03 bohr
Strict Convergence                .... False

------------------------------------------------------------------------------
                        ORCA OPTIMIZATION COORDINATE SETUP
------------------------------------------------------------------------------

The optimization will be done in redundant internal coordinates (2022)
Making redundant internal coordinates   ...  (2022 redundants) done
Evaluating the initial hessian          ...  (Almloef) done
Evaluating the coordinates              ...  done
Calculating the B-matrix                .... done
Calculating the G-matrix                .... done
Diagonalizing the G-matrix              .... done
The first mode is                       ....   56
The number of degrees of freedom        ....   51

    -----------------------------------------------------------------
                    Redundant Internal Coordinates


    -----------------------------------------------------------------
         Definition                    Initial Value    Approx d2E/dq
    -----------------------------------------------------------------
      1. B(N   2,O   1)                  1.2259         0.916004   
      2. B(N   2,O   0)                  1.2254         0.917598   
      3. B(C   4,N   2)                  1.4566         0.438189   
      4. B(C   5,N   3)                  1.3581         0.629274   
      5. B(C   6,C   4)                  1.3996         0.603132   
      6. B(C   7,C   4)                  1.4000         0.602274   
      7. B(C   8,C   5)                  1.4184         0.562935   
      8. B(C   8,C   6)                  1.3855         0.635236   
      9. B(C   9,C   7)                  1.3850         0.636477   
     10. B(C   9,C   5)                  1.4195         0.560581   
     11. B(H  10,C   6)                  1.0896         0.360634   
     12. B(H  11,C   7)                  1.0896         0.360610   
     13. B(H  12,C   8)                  1.0931         0.356025   
     14. B(H  13,C   9)                  1.0915         0.358180   
     15. B(H  14,N   3)                  1.0103         0.432168   
     16. B(H  15,N   3)                  1.0183         0.419643   
     17. B(H  17,O  16)                  0.9665         0.507739   
     18. B(H  18,H  15)                  2.1963         0.001184   
     19. B(H  18,N   3)                  2.1365         0.006902   
     20. B(H  18,H  14)                  2.1362         0.001477   
     21. B(H  18,O  16)                  0.9667         0.507397   
     22. A(O   0,N   2,O   1)          124.2148         0.487388   
     23. A(O   0,N   2,C   4)          117.9305         0.429005   
     24. A(O   1,N   2,C   4)          117.8546         0.428871   
     25. A(H  14,N   3,H  18)           76.3048         0.172953   
     26. A(H  15,N   3,H  18)           79.7043         0.172396   
     27. A(C   5,N   3,H  14)          120.4487         0.359500   
     28. A(C   5,N   3,H  18)          118.3205         0.195051   
     29. A(H  14,N   3,H  15)          119.8912         0.301715   
     30. A(C   5,N   3,H  15)          119.5144         0.357705   
     31. A(N   2,C   4,C   6)          119.6357         0.403403   
     32. A(C   6,C   4,C   7)          120.7311         0.429674   
     33. A(N   2,C   4,C   7)          119.6332         0.403302   
     34. A(N   3,C   5,C   8)          121.7327         0.424956   
     35. A(C   8,C   5,C   9)          118.1535         0.418995   
     36. A(N   3,C   5,C   9)          120.1133         0.424637   
     37. A(C   8,C   6,H  10)          121.4597         0.354452   
     38. A(C   4,C   6,H  10)          118.8443         0.351354   
     39. A(C   4,C   6,C   8)          119.6960         0.433808   
     40. A(C   4,C   7,C   9)          119.6187         0.433849   
     41. A(C   9,C   7,H  11)          121.4202         0.354565   
     42. A(C   4,C   7,H  11)          118.9611         0.351266   
     43. A(C   6,C   8,H  12)          119.8983         0.353680   
     44. A(C   5,C   8,C   6)          120.8676         0.428467   
     45. A(C   5,C   8,H  12)          119.2342         0.346540   
     46. A(C   5,C   9,C   7)          120.9332         0.428295   
     47. A(C   7,C   9,H  13)          120.3298         0.354159   
     48. A(C   5,C   9,H  13)          118.7369         0.346647   
     49. A(N   3,H  14,H  18)           76.3388         0.136913   
     50. A(N   3,H  15,H  18)           73.1538         0.134273   
     51. A(H  17,O  16,H  18)          104.8615         0.319306   
     52. A(N   3,H  18,O  16)          149.0032         0.176059   
     53. A(H  14,H  18,O  16)          152.8372         0.138685   
     54. A(N   3,H  18,H  15)           27.1419         0.106868   
     55. A(H  14,H  18,H  15)           47.7945         0.099197   
     56. A(H  15,H  18,O  16)          148.5916         0.136261   
     57. A(N   3,H  18,H  14)           27.3564         0.107785   
     58. D(C   7,C   4,N   2,O   0)    179.7662         0.015121   
     59. D(C   7,C   4,N   2,O   1)     -0.1141         0.015121   
     60. D(C   6,C   4,N   2,O   0)     -0.2403         0.015121   
     61. D(C   6,C   4,N   2,O   1)    179.8794         0.015121   
     62. D(C   8,C   5,N   3,H  14)     -1.2004         0.034955   
     63. D(C   8,C   5,N   3,H  18)     89.0755         0.034955   
     64. D(C   9,C   5,N   3,H  15)      3.4546         0.034955   
     65. D(C   9,C   5,N   3,H  14)    179.0629         0.034955   
     66. D(C   8,C   5,N   3,H  15)   -176.8087         0.034955   
     67. D(H  10,C   6,C   4,C   7)    179.9773         0.025091   
     68. D(C   8,C   6,C   4,C   7)      0.0444         0.025091   
     69. D(H  10,C   6,C   4,N   2)     -0.0162         0.025091   
     70. D(C   8,C   6,C   4,N   2)   -179.9491         0.025091   
     71. D(C   9,C   7,C   4,C   6)      0.0089         0.025016   
     72. D(C   9,C   7,C   4,N   2)   -179.9977         0.025016   
     73. D(H  11,C   7,C   4,C   6)    179.9228         0.025016   
     74. D(H  11,C   7,C   4,N   2)     -0.0838         0.025016   
     75. D(H  12,C   8,C   6,H  10)      0.0107         0.028009   
     76. D(H  12,C   8,C   6,C   4)    179.9418         0.028009   
     77. D(C   5,C   8,C   6,H  10)   -179.9804         0.028009   
     78. D(C   5,C   8,C   6,C   4)     -0.0493         0.028009   
     79. D(H  12,C   8,C   5,C   9)   -179.9891         0.021716   
     80. D(H  12,C   8,C   5,N   3)      0.2692         0.021716   
     81. D(C   6,C   8,C   5,C   9)      0.0021         0.021716   
     82. D(C   6,C   8,C   5,N   3)   -179.7396         0.021716   
     83. D(C   5,C   9,C   7,C   4)     -0.0573         0.028125   
     84. D(H  13,C   9,C   5,C   8)   -179.8209         0.021528   
     85. D(H  13,C   9,C   5,N   3)     -0.0749         0.021528   
     86. D(C   7,C   9,C   5,C   8)      0.0518         0.021528   
     87. D(C   5,C   9,C   7,H  11)   -179.9691         0.028125   
     88. D(C   7,C   9,C   5,N   3)    179.7978         0.021528   
     89. D(H  13,C   9,C   7,H  11)     -0.0984         0.028125   
     90. D(H  13,C   9,C   7,C   4)    179.8134         0.028125   
     91. D(H  18,H  14,N   3,H  15)    -69.3744         0.238934   
     92. D(H  18,H  14,N   3,C   5)    115.0339         0.238934   
     93. D(H  18,H  15,N   3,H  14)     67.5441         0.221847   
     94. D(H  18,H  15,N   3,C   5)   -116.8228         0.221847   
     95. D(H  15,H  18,O  16,H  17)    -61.3125         0.360011   
     96. D(N   3,H  18,O  16,H  17)     -7.4539         0.360011   
     97. D(H  14,H  18,O  16,H  17)     50.2812         0.360011   
     98. D(O  16,H  18,H  15,N   3)    114.2666         0.001514   
     99. D(H  15,H  18,H  14,N   3)     30.5235         0.001522   
    100. D(O  16,H  18,H  14,N   3)   -108.6208         0.001522   
    101. D(H  15,H  18,N   3,C   5)    118.0921         0.001532   
    102. D(H  14,H  18,N   3,H  15)    124.4439         0.001532   
    103. D(H  14,H  18,H  15,N   3)    -30.7703         0.001514   
    104. D(H  14,H  18,N   3,C   5)   -117.4641         0.001532   
    105. D(O  16,H  18,N   3,H  15)   -112.7026         0.001532   
    106. D(O  16,H  18,N   3,H  14)    122.8535         0.001532   
    107. D(O  16,H  18,N   3,C   5)      5.3895         0.001532   
    -----------------------------------------------------------------

Number of atoms                         .... 19
Number of degrees of freedom            .... 107


         *************************************************************
         *                GEOMETRY OPTIMIZATION CYCLE   1            *
         *************************************************************
---------------------------------
CARTESIAN COORDINATES (ANGSTROEM)
---------------------------------
  O      2.756448   -0.266430    1.359141
  O      2.729607   -0.758960   -0.750423
  N      2.203127   -0.323279    0.267280
  N     -3.085338    1.541361   -0.122294
  C      0.832514    0.160206    0.171000
  C     -1.808779    1.091054   -0.013038
  C      0.194411    0.663216    1.310606
  C      0.167959    0.116483   -1.060437
  C     -1.109658    1.122452    1.220675
  C     -1.135244    0.576319   -1.151652
  H      0.740368    0.682546    2.253356
  H      0.692637   -0.279722   -1.929342
  H     -1.611520    1.515102    2.108833
  H     -1.663269    0.550461   -2.106532
  H     -3.574375    1.895669    0.687705
  H     -3.572192    1.458120   -1.012840
  O     -3.026511    4.465835   -0.817639
  H     -2.069219    4.351294   -0.750233
  H     -3.396491    3.604520   -0.581681

----------------------------
CARTESIAN COORDINATES (A.U.)
----------------------------
  NO LB      ZA    FRAG     MASS         X           Y           Z
   0 O     8.0000    0    15.999    5.208931   -0.503479    2.568405
   1 O     8.0000    0    15.999    5.158209   -1.434226   -1.418094
   2 N     7.0000    0    14.007    4.163307   -0.610908    0.505085
   3 N     7.0000    0    14.007   -5.830444    2.912751   -0.231101
   4 C     6.0000    0    12.011    1.573224    0.302746    0.323143
   5 C     6.0000    0    12.011   -3.418097    2.061794   -0.024638
   6 C     6.0000    0    12.011    0.367383    1.253297    2.476687
   7 C     6.0000    0    12.011    0.317397    0.220121   -2.003936
   8 C     6.0000    0    12.011   -2.096950    2.121128    2.306742
   9 C     6.0000    0    12.011   -2.145301    1.089086   -2.176307
  10 H     1.0000    0     1.008    1.399092    1.289826    4.258226
  11 H     1.0000    0     1.008    1.308893   -0.528597   -3.645929
  12 H     1.0000    0     1.008   -3.045331    2.863128    3.985117
  13 H     1.0000    0     1.008   -3.143123    1.040221   -3.980768
  14 H     1.0000    0     1.008   -6.754589    3.582294    1.299574
  15 H     1.0000    0     1.008   -6.750465    2.755448   -1.913990
  16 O     8.0000    0    15.999   -5.719276    8.439204   -1.545113
  17 H     1.0000    0     1.008   -3.910258    8.222754   -1.417734
  18 H     1.0000    0     1.008   -6.418438    6.811556   -1.099218

--------------------------------
INTERNAL COORDINATES (ANGSTROEM)
--------------------------------
 O      0   0   0     0.000000000000     0.00000000     0.00000000
 O      1   0   0     2.166464237485     0.00000000     0.00000000
 N      1   2   0     1.225380455163    27.89846971     0.00000000
 N      3   1   2     5.621077957540   118.11190499   180.16449908
 C      3   1   2     1.456573776229   117.93047763   180.12792443
 C      4   3   1     1.358056357900     0.64036730   346.55237646
 C      5   3   1     1.399606474534   119.63571574   359.75974650
 C      5   3   1     1.399993811375   119.63321222   179.76622709
 C      7   5   3     1.385489394346   119.69598226   180.05093147
 C      8   5   3     1.384958117553   119.61870265   180.00229757
 H      7   5   3     1.089596297643   118.84429060     0.00000000
 H      8   5   3     1.089614826056   118.96107358   359.91624807
 H      9   7   5     1.093097746184   119.89828640   179.94179457
 H     10   8   5     1.091455006698   120.32978830   179.81336252
 H      4   3   1     1.010340218445   121.07474412   358.73338318
 H      4   3   1     1.018345870634   118.90024443   182.94359111
 O      4   3   1     3.006577435236   108.68011065    90.08209680
 H     17   4   3     0.966472606610    83.56780465   357.10479277
 H     17   4   3     0.966655933378    21.46606628   184.35384060

---------------------------
INTERNAL COORDINATES (A.U.)
---------------------------
 O      0   0   0     0.000000000000     0.00000000     0.00000000
 O      1   0   0     4.094024087782     0.00000000     0.00000000
 N      1   2   0     2.315633470119    27.89846971     0.00000000
 N      3   1   2    10.622297917172   118.11190499   180.16449908
 C      3   1   2     2.752525530924   117.93047763   180.12792443
 C      4   3   1     2.566354590862     0.64036730   346.55237646
 C      5   3   1     2.644872932133   119.63571574   359.75974650
 C      5   3   1     2.645604892684   119.63321222   179.76622709
 C      7   5   3     2.618195516767   119.69598226   180.05093147
 C      8   5   3     2.617191549127   119.61870265   180.00229757
 H      7   5   3     2.059038599081   118.84429060     0.00000000
 H      8   5   3     2.059073612705   118.96107358   359.91624807
 H      9   7   5     2.065655377894   119.89828640   179.94179457
 H     10   8   5     2.062551050157   120.32978830   179.81336252
 H      4   3   1     1.909266314947   121.07474412   358.73338318
 H      4   3   1     1.924394805108   118.90024443   182.94359111
 O      4   3   1     5.681607953023   108.68011065    90.08209680
 H     17   4   3     1.826368542430    83.56780465   357.10479277
 H     17   4   3     1.826714979815    21.46606628   184.35384060

---------------------
BASIS SET INFORMATION
---------------------
There are 4 groups of distinct atoms

 Group   1 Type O   : 7s4p1d contracted to 3s2p1d pattern {511/31/1}
 Group   2 Type N   : 7s4p1d contracted to 3s2p1d pattern {511/31/1}
 Group   3 Type C   : 7s4p1d contracted to 3s2p1d pattern {511/31/1}
 Group   4 Type H   : 4s1p contracted to 2s1p pattern {31/1}

Atom   0O    basis set group =>   1
Atom   1O    basis set group =>   1
Atom   2N    basis set group =>   2
Atom   3N    basis set group =>   2
Atom   4C    basis set group =>   3
Atom   5C    basis set group =>   3
Atom   6C    basis set group =>   3
Atom   7C    basis set group =>   3
Atom   8C    basis set group =>   3
Atom   9C    basis set group =>   3
Atom  10H    basis set group =>   4
Atom  11H    basis set group =>   4
Atom  12H    basis set group =>   4
Atom  13H    basis set group =>   4
Atom  14H    basis set group =>   4
Atom  15H    basis set group =>   4
Atom  16O    basis set group =>   1
Atom  17H    basis set group =>   4
Atom  18H    basis set group =>   4
---------------------------------
AUXILIARY/J BASIS SET INFORMATION
---------------------------------
There are 4 groups of distinct atoms

 Group   1 Type O   : 12s5p4d2f1g contracted to 6s4p3d1f1g pattern {711111/2111/211/2/1}
 Group   2 Type N   : 12s5p4d2f1g contracted to 6s4p3d1f1g pattern {711111/2111/211/2/1}
 Group   3 Type C   : 12s5p4d2f1g contracted to 6s4p3d1f1g pattern {711111/2111/211/2/1}
 Group   4 Type H   : 5s2p1d contracted to 3s1p1d pattern {311/2/1}

Atom   0O    basis set group =>   1
Atom   1O    basis set group =>   1
Atom   2N    basis set group =>   2
Atom   3N    basis set group =>   2
Atom   4C    basis set group =>   3
Atom   5C    basis set group =>   3
Atom   6C    basis set group =>   3
Atom   7C    basis set group =>   3
Atom   8C    basis set group =>   3
Atom   9C    basis set group =>   3
Atom  10H    basis set group =>   4
Atom  11H    basis set group =>   4
Atom  12H    basis set group =>   4
Atom  13H    basis set group =>   4
Atom  14H    basis set group =>   4
Atom  15H    basis set group =>   4
Atom  16O    basis set group =>   1
Atom  17H    basis set group =>   4
Atom  18H    basis set group =>   4


           ************************************************************
           *        Program running with 40 parallel MPI-processes    *
           *              working on a common directory               *
           ************************************************************
------------------------------------------------------------------------------
                             ORCA STARTUP CALCULATIONS
                           -- RI-GTO INTEGRALS CHOSEN --
------------------------------------------------------------------------------
------------------------------------------------------------------------------
                   ___                                                        
                  /   \      - P O W E R E D   B Y -                         
                 /     \                                                     
                 |  |  |   _    _      __       _____    __    __             
                 |  |  |  | |  | |    /  \     |  _  \  |  |  /  |          
                  \  \/   | |  | |   /    \    | | | |  |  | /  /          
                 / \  \   | |__| |  /  /\  \   | |_| |  |  |/  /          
                |  |  |   |  __  | /  /__\  \  |    /   |      \           
                |  |  |   | |  | | |   __   |  |    \   |  |\   \          
                \     /   | |  | | |  |  |  |  | |\  \  |  | \   \       
                 \___/    |_|  |_| |__|  |__|  |_| \__\ |__|  \__/        
                                                                              
                      - O R C A' S   B I G   F R I E N D -                    
                                      &                                       
                       - I N T E G R A L  F E E D E R -                       
                                                                              
 v1 FN, 2020, v2 2021, v3 2022-2024                                           
------------------------------------------------------------------------------


----------------------
SHARK INTEGRAL PACKAGE
----------------------

Number of atoms                             ...     19
Number of basis functions                   ...    194
Number of shells                            ...     90
Maximum angular momentum                    ...      2
Integral batch strategy                     ... SHARK/LIBINT Hybrid
RI-J (if used) integral strategy            ... SPLIT-RIJ (Revised 2003 algorithm where possible)
Printlevel                                  ...      1
Contraction scheme used                     ... SEGMENTED contraction
Prescreening option                         ... SCHWARTZ
   Thresh                                   ... 2.500e-11
   Tcut                                     ... 2.500e-12
   Tpresel                                  ... 2.500e-12 
Coulomb Range Separation                    ... NOT USED
Exchange Range Separation                   ... NOT USED
Multipole approximations                    ... NOT USED
Finite Nucleus Model                        ... NOT USED
CABS basis                                  ... NOT available
Auxiliary Coulomb fitting basis             ... AVAILABLE
   # of basis functions in Aux-J            ...    627
   # of shells in Aux-J                     ...    205
   Maximum angular momentum in Aux-J        ...      4
Auxiliary J/K fitting basis                 ... NOT available
Auxiliary Correlation fitting basis         ... NOT available
Auxiliary 'external' fitting basis          ... NOT available

Checking pre-screening integrals            ... done (  0.0 sec) Dimension = 90
Check shell pair data                       ... done (  0.0 sec)
Shell pair information
Shell pair cut-off parameter TPreSel        ...   2.5e-12
Total number of shell pairs                 ...      4095
Shell pairs after pre-screening             ...      3493
Total number of primitive shell pairs       ...     15045
Primitive shell pairs kept                  ...      8945
          la=0 lb=0:   1057 shell pairs
          la=1 lb=0:   1270 shell pairs
          la=1 lb=1:    406 shell pairs
          la=2 lb=0:    439 shell pairs
          la=2 lb=1:    268 shell pairs
          la=2 lb=2:     53 shell pairs

Calculating one electron integrals          ... done (  0.0 sec)
Calculating RI/J V-Matrix + Cholesky decomp.... done (  0.0 sec)
Calculating Nuclear repulsion               ... done (  0.0 sec) ENN=    582.331230212371 Eh

Diagonalization of the overlap matrix:
Smallest eigenvalue                        ... 2.603e-04
Time for diagonalization                   ...    0.004 sec
Threshold for overlap eigenvalues          ... 1.000e-07
Number of eigenvalues below threshold      ... 0
Time for construction of square roots      ...    0.002 sec
Total time needed                          ...    0.007 sec

-------------------
DFT GRID GENERATION
-------------------

General Integration Accuracy     IntAcc      ... 4.388
Radial Grid Type                 RadialGrid  ... OptM3 with GC (2021)
Angular Grid (max. ang.)         AngularGrid ... 4 (Lebedev-302)
Angular grid pruning method      GridPruning ... 4 (adaptive)
Weight generation scheme         WeightScheme... mBecke (2022)
Basis function cutoff            BFCut       ... 1.0000e-11
Integration weight cutoff        WCut        ... 1.0000e-14
Partially contracted basis set               ... off
Rotationally invariant grid construction     ... off
Angular grids for H and He will be reduced by one unit

Total number of grid points                  ...    92209
Total number of batches                      ...     1449
Average number of points per batch           ...       63
Average number of grid points per atom       ...     4853

--------------------
COSX GRID GENERATION
--------------------

GRIDX 1
-------
General Integration Accuracy     IntAcc      ... 3.816
Radial Grid Type                 RadialGrid  ... OptM3 with GC (2021)
Angular Grid (max. ang.)         AngularGrid ... 1 (Lebedev-50)
Angular grid pruning method      GridPruning ... 4 (adaptive)
Weight generation scheme         WeightScheme... mBecke (2022)
Basis function cutoff            BFCut       ... 1.0000e-11
Integration weight cutoff        WCut        ... 1.0000e-14
Partially contracted basis set               ... on
Rotationally invariant grid construction     ... off
Angular grids for H and He will be reduced by one unit

Total number of grid points                  ...    11755
Total number of batches                      ...      102
Average number of points per batch           ...      115
Average number of grid points per atom       ...      619
UseSFitting                                  ... on

GRIDX 2
-------
General Integration Accuracy     IntAcc      ... 4.020
Radial Grid Type                 RadialGrid  ... OptM3 with GC (2021)
Angular Grid (max. ang.)         AngularGrid ... 2 (Lebedev-110)
Angular grid pruning method      GridPruning ... 4 (adaptive)
Weight generation scheme         WeightScheme... mBecke (2022)
Basis function cutoff            BFCut       ... 1.0000e-11
Integration weight cutoff        WCut        ... 1.0000e-14
Partially contracted basis set               ... on
Rotationally invariant grid construction     ... off
Angular grids for H and He will be reduced by one unit

Total number of grid points                  ...    25943
Total number of batches                      ...      211
Average number of points per batch           ...      122
Average number of grid points per atom       ...     1365
UseSFitting                                  ... on

GRIDX 3
-------
General Integration Accuracy     IntAcc      ... 4.338
Radial Grid Type                 RadialGrid  ... OptM3 with GC (2021)
Angular Grid (max. ang.)         AngularGrid ... 3 (Lebedev-194)
Angular grid pruning method      GridPruning ... 4 (adaptive)
Weight generation scheme         WeightScheme... mBecke (2022)
Basis function cutoff            BFCut       ... 1.0000e-11
Integration weight cutoff        WCut        ... 1.0000e-14
Partially contracted basis set               ... on
Rotationally invariant grid construction     ... off
Angular grids for H and He will be reduced by one unit

Total number of grid points                  ...    57005
Total number of batches                      ...      456
Average number of points per batch           ...      125
Average number of grid points per atom       ...     3000
UseSFitting                                  ... on
Initializing property integral containers    ... done (  0.0 sec)

SHARK setup successfully completed in   0.9 seconds

Maximum memory used throughout the entire STARTUP-calculation: 23.5 MB


           ************************************************************
           *        Program running with 40 parallel MPI-processes    *
           *              working on a common directory               *
           ************************************************************
-------------------------------------------------------------------------------
                                 ORCA GUESS
                   Start orbitals & Density for SCF / CASSCF
-------------------------------------------------------------------------------

------------
SCF SETTINGS
------------
Hamiltonian:
 Density Functional     Method          .... DFT(GTOs)
 Exchange Functional    Exchange        .... B88
   X-Alpha parameter    XAlpha          ....  0.666667
   Becke's b parameter  XBeta           ....  0.004200
 Correlation Functional Correlation     .... LYP
 LDA part of GGA corr.  LDAOpt          .... VWN-5
 Gradients option       PostSCFGGA      .... off
 Hybrid DFT is turned on
   Fraction HF Exchange ScalHFX         ....  0.200000
   Scaling of DF-GGA-X  ScalDFX         ....  0.720000
   Scaling of DF-GGA-C  ScalDFC         ....  0.810000
   Scaling of DF-LDA-C  ScalLDAC        ....  1.000000
   Perturbative correction              ....  0.000000
   NL short-range parameter             ....  4.800000
 RI-approximation to the Coulomb term is turned on
   Number of AuxJ basis functions       .... 627
   RIJ-COSX (HFX calculated with COS-X)).... on


General Settings:
 Integral files         IntName         .... 4nitroaniline_water_2_OPT
 Hartree-Fock type      HFTyp           .... RHF
 Total Charge           Charge          ....    0
 Multiplicity           Mult            ....    1
 Number of Electrons    NEL             ....   82
 Basis Dimension        Dim             ....  194
 Nuclear Repulsion      ENuc            ....    582.3312302124 Eh

Convergence Acceleration:
 AO-DIIS                CNVDIIS         .... on
   Start iteration      DIISMaxIt       ....    12
   Startup error        DIISStart       ....  0.200000
   # of expansion vecs  DIISMaxEq       ....     5
   Bias factor          DIISBfac        ....   1.050
   Max. coefficient     DIISMaxC        ....  10.000
 MO-DIIS                CNVKDIIS        .... off
 Trust-Rad. Augm. Hess. CNVTRAH         .... auto
   Auto Start mean grad. ratio tolernc. ....  1.125000
   Auto Start start iteration           ....    50
   Auto Start num. interpolation iter.  ....    10
   Max. Number of Micro iterations      ....    24
   Max. Number of Macro iterations      .... Maxiter - #DIIS iter
   Number of Davidson start vectors     ....     2
   Converg. threshold    (grad. norm)   ....   1.000e-05
   Grad. Scal. Fac. for Micro threshold ....   0.100
   Minimum threshold for Micro iter.    ....   1.000e-02
   NR start threshold (gradient norm)   ....   1.000e-04
   Initial trust radius                 ....   0.400
   Minimum AH scaling param. (alpha)    ....   1.000
   Maximum AH scaling param. (alpha)    .... 1000.000
   Quad. conv. algorithm                .... NR
   White noise on init. David. guess    .... on
   Maximum white noise                  ....   0.010
   Pseudo random numbers                .... off
   Inactive MOs                         .... canonical
   Orbital update algorithm             .... Taylor
   Preconditioner                       .... Diag
   Full preconditioner red. dimension   ....   250
 SOSCF                  CNVSOSCF        .... on
   Start iteration      SOSCFMaxIt      ....   150
   Startup grad/error   SOSCFStart      ....  0.003300
   Hessian update       SOSCFHessUp     .... L-BFGS
 Level Shifting         CNVShift        .... on
   Level shift para.    LevelShift      ....    0.2500
   Turn off err/grad.   ShiftErr        ....    0.0010
 Zerner damping         CNVZerner       .... off
 Static damping         CNVDamp         .... on
   Fraction old density DampFac         ....    0.7000
   Max. Damping (<1)    DampMax         ....    0.9800
   Min. Damping (>=0)   DampMin         ....    0.0000
   Turn off err/grad.   DampErr         ....    0.1000

SCF Procedure:
 Maximum # iterations   MaxIter         ....   125
 SCF integral mode      SCFMode         .... Direct
   Integral package                     .... SHARK and LIBINT hybrid scheme
 Reset frequency        DirectResetFreq ....    20
 Integral Threshold     Thresh          ....  2.500e-11 Eh
 Primitive CutOff       TCut            ....  2.500e-12 Eh

Convergence Tolerance:
 Convergence Check Mode ConvCheckMode   .... Total+1el-Energy
 Convergence forced     ConvForced      .... 0
 Energy Change          TolE            ....  1.000e-08 Eh
 1-El. energy change                    ....  1.000e-05 Eh
 Orbital Gradient       TolG            ....  1.000e-05
 Orbital Rotation angle TolX            ....  1.000e-05
 DIIS Error             TolErr          ....  5.000e-07

------------------------------
INITIAL GUESS: MODEL POTENTIAL
------------------------------
Loading Hartree-Fock densities                     ... done
Calculating cut-offs                               ... done
Initializing the effective Hamiltonian             ... done
Setting up the integral package (SHARK)            ... done
Starting the Coulomb interaction                   ... done (   0.0 sec)
Making the grid                                    ... done (   0.2 sec)
Mapping shells                                     ... done
Starting the XC term evaluation                    ... done (   0.0 sec)
  promolecular density results
     # of electrons  =     81.996366691
     EX              =    -70.965421193
     EC              =     -2.832643789
     EX+EC           =    -73.798064982
Transforming the Hamiltonian                       ... done (   0.0 sec)
Diagonalizing the Hamiltonian                      ... done (   0.0 sec)
Back transforming the eigenvectors                 ... done (   0.0 sec)
Now organizing SCF variables                       ... done
                      ------------------
                      INITIAL GUESS DONE (   0.2 sec)
                      ------------------
             **** ENERGY FILE WAS UPDATED (4nitroaniline_water_2_OPT.en.tmp) ****
Finished Guess after   1.5 sec
Maximum memory used throughout the entire GUESS-calculation: 13.4 MB


           ************************************************************
           *        Program running with 40 parallel MPI-processes    *
           *              working on a common directory               *
           ************************************************************

-------------------------------------------------------------------------------------------
                                      ORCA LEAN-SCF
                              memory conserving SCF solver
-------------------------------------------------------------------------------------------

----------------------------------------D-I-I-S--------------------------------------------
Iteration    Energy (Eh)           Delta-E    RMSDP     MaxDP     DIISErr   Damp  Time(sec)
-------------------------------------------------------------------------------------------
               ***  Starting incremental Fock matrix formation  ***
    1    -567.4351363900741489     0.00e+00  4.03e-03  8.96e-02  3.07e-01  0.700   0.3
    2    -567.6152371440289244    -1.80e-01  2.51e-03  4.82e-02  1.31e-01  0.700   0.2
                               ***Turning on AO-DIIS***
    3    -567.6787264691477048    -6.35e-02  1.09e-03  1.65e-02  3.91e-02  0.700   0.2
    4    -567.7191544020909078    -4.04e-02  1.91e-03  2.87e-02  1.80e-02  0.000   0.2
    5    -567.8096973132967378    -9.05e-02  3.48e-04  8.24e-03  5.59e-03  0.000   0.2
                              *** Initializing SOSCF ***
---------------------------------------S-O-S-C-F--------------------------------------
Iteration    Energy (Eh)           Delta-E    RMSDP     MaxDP     MaxGrad    Time(sec)
--------------------------------------------------------------------------------------
    6    -567.8101697170443458    -4.72e-04  1.15e-04  3.38e-03  1.48e-03     0.2
               *** Restarting incremental Fock matrix formation ***
    7    -567.8101576184290025     1.21e-05  8.16e-05  1.99e-03  3.85e-04     0.3
    8    -567.8101571666561540     4.52e-07  3.44e-05  7.94e-04  5.27e-04     0.2
    9    -567.8101622503354520    -5.08e-06  1.85e-05  3.58e-04  9.62e-05     0.2
   10    -567.8101621840537518     6.63e-08  8.67e-06  3.23e-04  1.51e-04     0.2
   11    -567.8101625674917159    -3.83e-07  7.42e-06  2.14e-04  7.44e-05     0.2
   12    -567.8101624661144342     1.01e-07  4.99e-06  1.83e-04  1.30e-04     0.2
   13    -567.8101626159168518    -1.50e-07  2.84e-06  1.10e-04  2.79e-05     0.2
   14    -567.8101625898864313     2.60e-08  1.89e-06  6.63e-05  4.94e-05     0.2
   15    -567.8101626240743371    -3.42e-08  4.01e-07  1.04e-05  3.41e-06     0.2
   16    -567.8101626254524490    -1.38e-09  2.61e-07  5.85e-06  4.81e-06     0.2
                 **** Energy Check signals convergence ****

               *****************************************************
               *                     SUCCESS                       *
               *           SCF CONVERGED AFTER  16 CYCLES          *
               *****************************************************

Recomputing exchange energy using gridx3       ... done (    0.299 sec)
Old exchange energy                            :    -14.334179776 Eh
New exchange energy                            :    -14.334202177 Eh
Exchange energy change after final integration :     -0.000022401 Eh
Total energy after final integration           :   -567.810185027 Eh
             **** ENERGY FILE WAS UPDATED (4nitroaniline_water_2_OPT.en.tmp) ****

----------------
TOTAL SCF ENERGY
----------------

Total Energy       :       -567.81018502651432 Eh          -15450.90064 eV

Components:
Nuclear Repulsion  :        582.33123021237088 Eh           15846.03837 eV
Electronic Energy  :      -1150.14139283782333 Eh          -31296.93840 eV
One Electron Energy:      -1927.95915200489731 Eh          -52462.43566 eV
Two Electron Energy:        777.81775916707397 Eh           21165.49726 eV

Virial components:
Potential Energy   :      -1130.92852826903254 Eh          -30774.12978 eV
Kinetic Energy     :        563.11834324251834 Eh           15323.22914 eV
Virial Ratio       :          2.00833189300313

DFT components:
N(Alpha)           :       40.999954829563 electrons
N(Beta)            :       40.999954829563 electrons
N(Total)           :       81.999909659126 electrons
E(X)               :      -57.079054384318 Eh       
E(C)               :       -3.339445418132 Eh       
E(XC)              :      -60.418499802450 Eh       

---------------
SCF CONVERGENCE
---------------

  Last Energy change         ...    1.3781e-09  Tolerance :   1.0000e-08
  Last MAX-Density change    ...    5.8513e-06  Tolerance :   1.0000e-07
  Last RMS-Density change    ...    2.6066e-07  Tolerance :   5.0000e-09
  Last DIIS Error            ...    1.4777e-03  Tolerance :   5.0000e-07
  Last Orbital Gradient      ...    4.8055e-06  Tolerance :   1.0000e-05
  Last Orbital Rotation      ...    2.1227e-06  Tolerance :   1.0000e-05


----------------
ORBITAL ENERGIES
----------------

  NO   OCC          E(Eh)            E(eV) 
   0   2.0000     -19.148828      -521.0661 
   1   2.0000     -19.148668      -521.0617 
   2   2.0000     -19.116345      -520.1822 
   3   2.0000     -14.547835      -395.8667 
   4   2.0000     -14.383535      -391.3959 
   5   2.0000     -10.269639      -279.4511 
   6   2.0000     -10.238101      -278.5929 
   7   2.0000     -10.220377      -278.1106 
   8   2.0000     -10.220162      -278.1047 
   9   2.0000     -10.214767      -277.9579 
  10   2.0000     -10.214239      -277.9436 
  11   2.0000      -1.208164       -32.8758 
  12   2.0000      -1.032972       -28.1086 
  13   2.0000      -0.978461       -26.6253 
  14   2.0000      -0.957558       -26.0565 
  15   2.0000      -0.874000       -23.7827 
  16   2.0000      -0.788885       -21.4667 
  17   2.0000      -0.769969       -20.9519 
  18   2.0000      -0.690811       -18.7979 
  19   2.0000      -0.645720       -17.5709 
  20   2.0000      -0.599583       -16.3155 
  21   2.0000      -0.563572       -15.3356 
  22   2.0000      -0.561785       -15.2869 
  23   2.0000      -0.536331       -14.5943 
  24   2.0000      -0.529257       -14.4018 
  25   2.0000      -0.514512       -14.0006 
  26   2.0000      -0.497724       -13.5438 
  27   2.0000      -0.466686       -12.6992 
  28   2.0000      -0.463497       -12.6124 
  29   2.0000      -0.450527       -12.2595 
  30   2.0000      -0.430119       -11.7041 
  31   2.0000      -0.425957       -11.5909 
  32   2.0000      -0.373003       -10.1499 
  33   2.0000      -0.369312       -10.0495 
  34   2.0000      -0.344717        -9.3802 
  35   2.0000      -0.301497        -8.2042 
  36   2.0000      -0.300929        -8.1887 
  37   2.0000      -0.291487        -7.9318 
  38   2.0000      -0.284611        -7.7447 
  39   2.0000      -0.281922        -7.6715 
  40   2.0000      -0.241027        -6.5587 
  41   0.0000      -0.079364        -2.1596 
  42   0.0000      -0.034077        -0.9273 
  43   0.0000       0.007716         0.2100 
  44   0.0000       0.014734         0.4009 
  45   0.0000       0.056928         1.5491 
  46   0.0000       0.059201         1.6109 
  47   0.0000       0.073874         2.0102 
  48   0.0000       0.109467         2.9787 
  49   0.0000       0.124116         3.3774 
  50   0.0000       0.134887         3.6705 
  51   0.0000       0.148409         4.0384 
*Only the first 10 virtual orbitals were printed.

                    ********************************
                    * MULLIKEN POPULATION ANALYSIS *
                    ********************************

-----------------------
MULLIKEN ATOMIC CHARGES
-----------------------
   0 O :   -0.254392
   1 O :   -0.254772
   2 N :    0.237199
   3 N :   -0.062928
   4 C :    0.161380
   5 C :    0.071709
   6 C :   -0.015091
   7 C :   -0.014250
   8 C :   -0.029223
   9 C :   -0.026643
  10 H :    0.007689
  11 H :    0.007655
  12 H :   -0.026540
  13 H :   -0.027012
  14 H :    0.130263
  15 H :    0.134505
  16 O :   -0.304175
  17 H :    0.154057
  18 H :    0.110568
Sum of atomic charges:    0.0000000

--------------------------------
MULLIKEN REDUCED ORBITAL CHARGES
--------------------------------
  0 O s       :     3.858459  s :     3.858459
      pz      :     1.233677  p :     4.374042
      px      :     1.643238
      py      :     1.497127
      dz2     :     0.007482  d :     0.021891
      dxz     :     0.006919
      dyz     :     0.004779
      dx2y2   :     0.001219
      dxy     :     0.001492

  1 O s       :     3.858779  s :     3.858779
      pz      :     1.310480  p :     4.374131
      px      :     1.658015
      py      :     1.405636
      dz2     :     0.005950  d :     0.021862
      dxz     :     0.006088
      dyz     :     0.005781
      dx2y2   :     0.002033
      dxy     :     0.002009

  2 N s       :     3.291460  s :     3.291460
      pz      :     1.044864  p :     3.356373
      px      :     1.140802
      py      :     1.170707
      dz2     :     0.037258  d :     0.114968
      dxz     :     0.031140
      dyz     :     0.026320
      dx2y2   :     0.010577
      dxy     :     0.009674

  3 N s       :     3.286076  s :     3.286076
      pz      :     1.031140  p :     3.761290
      px      :     1.124702
      py      :     1.605448
      dz2     :     0.003046  d :     0.015562
      dxz     :     0.005586
      dyz     :     0.001043
      dx2y2   :     0.002885
      dxy     :     0.003002

  4 C s       :     2.999423  s :     2.999423
      pz      :     0.873521  p :     2.791344
      px      :     0.849352
      py      :     1.068471
      dz2     :     0.013702  d :     0.047853
      dxz     :     0.011031
      dyz     :     0.007284
      dx2y2   :     0.008548
      dxy     :     0.007288

  5 C s       :     2.983170  s :     2.983170
      pz      :     1.050870  p :     2.882252
      px      :     0.901621
      py      :     0.929761
      dz2     :     0.012923  d :     0.062869
      dxz     :     0.014497
      dyz     :     0.007651
      dx2y2   :     0.013556
      dxy     :     0.014241

  6 C s       :     3.276700  s :     3.276700
      pz      :     0.890427  p :     2.703026
      px      :     0.880378
      py      :     0.932222
      dz2     :     0.007146  d :     0.035364
      dxz     :     0.011277
      dyz     :     0.004567
      dx2y2   :     0.006324
      dxy     :     0.006050

  7 C s       :     3.277166  s :     3.277166
      pz      :     0.914204  p :     2.701743
      px      :     0.884715
      py      :     0.902824
      dz2     :     0.007523  d :     0.035340
      dxz     :     0.010924
      dyz     :     0.005204
      dx2y2   :     0.005210
      dxy     :     0.006479

  8 C s       :     3.228746  s :     3.228746
      pz      :     0.845366  p :     2.768284
      px      :     0.895974
      py      :     1.026944
      dz2     :     0.007131  d :     0.032193
      dxz     :     0.011120
      dyz     :     0.004206
      dx2y2   :     0.004631
      dxy     :     0.005105

  9 C s       :     3.224388  s :     3.224388
      pz      :     0.834798  p :     2.770081
      px      :     0.894903
      py      :     1.040379
      dz2     :     0.006905  d :     0.032174
      dxz     :     0.011209
      dyz     :     0.003915
      dx2y2   :     0.005102
      dxy     :     0.005043

 10 H s       :     0.968633  s :     0.968633
      pz      :     0.012332  p :     0.023678
      px      :     0.007327
      py      :     0.004020

 11 H s       :     0.968673  s :     0.968673
      pz      :     0.010853  p :     0.023673
      px      :     0.007070
      py      :     0.005750

 12 H s       :     1.003459  s :     1.003459
      pz      :     0.011100  p :     0.023081
      px      :     0.005652
      py      :     0.006329

 13 H s       :     1.003860  s :     1.003860
      pz      :     0.012331  p :     0.023152
      px      :     0.005903
      py      :     0.004918

 14 H s       :     0.824301  s :     0.824301
      pz      :     0.018739  p :     0.045436
      px      :     0.011861
      py      :     0.014837

 15 H s       :     0.820675  s :     0.820675
      pz      :     0.021003  p :     0.044820
      px      :     0.011631
      py      :     0.012186

 16 O s       :     3.666237  s :     3.666237
      pz      :     1.916535  p :     4.627387
      px      :     1.227737
      py      :     1.483116
      dz2     :     0.001686  d :     0.010550
      dxz     :     0.000488
      dyz     :     0.001504
      dx2y2   :     0.005032
      dxy     :     0.001839

 17 H s       :     0.776341  s :     0.776341
      pz      :     0.019110  p :     0.069602
      px      :     0.034295
      py      :     0.016196

 18 H s       :     0.817153  s :     0.817153
      pz      :     0.020764  p :     0.072279
      px      :     0.018658
      py      :     0.032857



                     *******************************
                     * LOEWDIN POPULATION ANALYSIS *
                     *******************************

----------------------
LOEWDIN ATOMIC CHARGES
----------------------
   0 O :   -0.219863
   1 O :   -0.220229
   2 N :    0.277971
   3 N :    0.012827
   4 C :   -0.057746
   5 C :    0.037712
   6 C :    0.012575
   7 C :    0.012245
   8 C :   -0.062860
   9 C :   -0.060882
  10 H :    0.042735
  11 H :    0.042776
  12 H :    0.028340
  13 H :    0.027786
  14 H :    0.079513
  15 H :    0.084862
  16 O :   -0.150746
  17 H :    0.074685
  18 H :    0.038299

-------------------------------
LOEWDIN REDUCED ORBITAL CHARGES
-------------------------------
  0 O s       :     3.622132  s :     3.622132
      pz      :     1.372529  p :     4.555718
      px      :     1.678901
      py      :     1.504288
      dz2     :     0.015614  d :     0.042013
      dxz     :     0.015481
      dyz     :     0.006885
      dx2y2   :     0.002072
      dxy     :     0.001961

  1 O s       :     3.622513  s :     3.622513
      pz      :     1.429946  p :     4.555764
      px      :     1.689993
      py      :     1.435824
      dz2     :     0.011557  d :     0.041952
      dxz     :     0.013051
      dyz     :     0.010971
      dx2y2   :     0.002771
      dxy     :     0.003601

  2 N s       :     3.049435  s :     3.049435
      pz      :     1.123726  p :     3.431572
      px      :     1.172327
      py      :     1.135518
      dz2     :     0.083988  d :     0.241023
      dxz     :     0.068299
      dyz     :     0.050331
      dx2y2   :     0.020107
      dxy     :     0.018298

  3 N s       :     3.019292  s :     3.019292
      pz      :     1.170755  p :     3.925550
      px      :     1.198145
      py      :     1.556649
      dz2     :     0.009173  d :     0.042331
      dxz     :     0.017174
      dyz     :     0.002740
      dx2y2   :     0.006445
      dxy     :     0.006799

  4 C s       :     2.857448  s :     2.857448
      pz      :     1.089568  p :     3.078026
      px      :     0.920904
      py      :     1.067553
      dz2     :     0.036369  d :     0.122272
      dxz     :     0.031874
      dyz     :     0.016744
      dx2y2   :     0.020287
      dxy     :     0.016999

  5 C s       :     2.837620  s :     2.837620
      pz      :     1.088561  p :     2.975430
      px      :     0.957590
      py      :     0.929279
      dz2     :     0.033726  d :     0.149238
      dxz     :     0.037015
      dyz     :     0.017084
      dx2y2   :     0.029904
      dxy     :     0.031509

  6 C s       :     2.862651  s :     2.862651
      pz      :     1.045542  p :     3.033073
      px      :     1.046313
      py      :     0.941217
      dz2     :     0.020000  d :     0.091701
      dxz     :     0.030755
      dyz     :     0.010575
      dx2y2   :     0.015630
      dxy     :     0.014742

  7 C s       :     2.862661  s :     2.862661
      pz      :     1.044960  p :     3.033413
      px      :     1.046751
      py      :     0.941702
      dz2     :     0.021067  d :     0.091681
      dxz     :     0.030514
      dyz     :     0.011710
      dx2y2   :     0.013162
      dxy     :     0.015228

  8 C s       :     2.857658  s :     2.857658
      pz      :     1.020649  p :     3.119152
      px      :     1.051189
      py      :     1.047314
      dz2     :     0.020504  d :     0.086050
      dxz     :     0.031972
      dyz     :     0.009513
      dx2y2   :     0.011971
      dxy     :     0.012090

  9 C s       :     2.857645  s :     2.857645
      pz      :     1.020887  p :     3.117167
      px      :     1.051147
      py      :     1.045132
      dz2     :     0.019747  d :     0.086070
      dxz     :     0.031635
      dyz     :     0.009265
      dx2y2   :     0.012877
      dxy     :     0.012546

 10 H s       :     0.885839  s :     0.885839
      pz      :     0.036815  p :     0.071426
      px      :     0.022126
      py      :     0.012485

 11 H s       :     0.885825  s :     0.885825
      pz      :     0.032687  p :     0.071399
      px      :     0.021411
      py      :     0.017301

 12 H s       :     0.903348  s :     0.903348
      pz      :     0.032422  p :     0.068312
      px      :     0.016823
      py      :     0.019068

 13 H s       :     0.903668  s :     0.903668
      pz      :     0.035690  p :     0.068546
      px      :     0.017557
      py      :     0.015300

 14 H s       :     0.795166  s :     0.795166
      pz      :     0.050853  p :     0.125322
      px      :     0.030117
      py      :     0.044352

 15 H s       :     0.792728  s :     0.792728
      pz      :     0.055963  p :     0.122410
      px      :     0.029015
      py      :     0.037431

 16 O s       :     3.423390  s :     3.423390
      pz      :     1.860210  p :     4.707809
      px      :     1.313910
      py      :     1.533689
      dz2     :     0.003249  d :     0.019547
      dxz     :     0.000511
      dyz     :     0.001718
      dx2y2   :     0.010591
      dxy     :     0.003479

 17 H s       :     0.749931  s :     0.749931
      pz      :     0.052317  p :     0.175384
      px      :     0.085712
      py      :     0.037355

 18 H s       :     0.774181  s :     0.774181
      pz      :     0.057514  p :     0.187520
      px      :     0.036618
      py      :     0.093389



                      *****************************
                      * MAYER POPULATION ANALYSIS *
                      *****************************

  NA   - Mulliken gross atomic population
  ZA   - Total nuclear charge
  QA   - Mulliken gross atomic charge
  VA   - Mayer's total valence
  BVA  - Mayer's bonded valence
  FA   - Mayer's free valence

  ATOM       NA         ZA         QA         VA         BVA        FA
  0 O      8.2544     8.0000    -0.2544     1.9505     1.9505    -0.0000
  1 O      8.2548     8.0000    -0.2548     1.9499     1.9499    -0.0000
  2 N      6.7628     7.0000     0.2372     3.9826     3.9826    -0.0000
  3 N      7.0629     7.0000    -0.0629     3.2677     3.2677     0.0000
  4 C      5.8386     6.0000     0.1614     3.7574     3.7574    -0.0000
  5 C      5.9283     6.0000     0.0717     4.0228     4.0228     0.0000
  6 C      6.0151     6.0000    -0.0151     3.8581     3.8581     0.0000
  7 C      6.0142     6.0000    -0.0142     3.8581     3.8581     0.0000
  8 C      6.0292     6.0000    -0.0292     3.7518     3.7518     0.0000
  9 C      6.0266     6.0000    -0.0266     3.7535     3.7535     0.0000
 10 H      0.9923     1.0000     0.0077     1.0191     1.0191     0.0000
 11 H      0.9923     1.0000     0.0077     1.0190     1.0190     0.0000
 12 H      1.0265     1.0000    -0.0265     0.9890     0.9890    -0.0000
 13 H      1.0270     1.0000    -0.0270     0.9893     0.9893     0.0000
 14 H      0.8697     1.0000     0.1303     1.0002     1.0002     0.0000
 15 H      0.8655     1.0000     0.1345     0.9985     0.9985     0.0000
 16 O      8.3042     8.0000    -0.3042     2.0281     2.0281    -0.0000
 17 H      0.8459     1.0000     0.1541     1.0119     1.0119     0.0000
 18 H      0.8894     1.0000     0.1106     1.0935     1.0935     0.0000

  Mayer bond orders larger than 0.100000
B(  0-O ,  1-O ) :   0.2688 B(  0-O ,  2-N ) :   1.5321 B(  1-O ,  2-N ) :   1.5316 
B(  2-N ,  4-C ) :   0.8896 B(  3-N ,  5-C ) :   1.2641 B(  3-N , 14-H ) :   0.9340 
B(  3-N , 15-H ) :   0.9328 B(  4-C ,  6-C ) :   1.3483 B(  4-C ,  7-C ) :   1.3442 
B(  5-C ,  8-C ) :   1.2825 B(  5-C ,  9-C ) :   1.2813 B(  6-C ,  8-C ) :   1.3894 
B(  6-C , 10-H ) :   0.9807 B(  7-C ,  9-C ) :   1.3942 B(  7-C , 11-H ) :   0.9813 
B(  8-C , 12-H ) :   0.9874 B(  9-C , 13-H ) :   0.9859 B( 16-O , 17-H ) :   1.0055 
B( 16-O , 18-H ) :   0.9922 

-------
TIMINGS
-------

Total SCF time: 0 days 0 hours 0 min 4 sec 

Total time                  ....       4.964 sec
Sum of individual times     ....       4.917 sec  ( 99.0%)

SCF preparation             ....       1.306 sec  ( 26.3%)
Fock matrix formation       ....       3.243 sec  ( 65.3%)
  Startup                   ....       0.026 sec  (  0.8% of F)
  Split-RI-J                ....       0.367 sec  ( 11.3% of F)
  Chain of spheres X        ....       1.999 sec  ( 61.6% of F)
  XC integration            ....       0.763 sec  ( 23.5% of F)
    XC Preparation          ....       0.000 sec  (  0.0% of XC)
    Basis function eval.    ....       0.152 sec  ( 19.9% of XC)
    Density eval.           ....       0.064 sec  (  8.4% of XC)
    XC-Functional eval.     ....       0.037 sec  (  4.9% of XC)
    XC-Potential eval.      ....       0.081 sec  ( 10.7% of XC)
Diagonalization             ....       0.000 sec  (  0.0%)
Density matrix formation    ....       0.043 sec  (  0.9%)
Total Energy calculation    ....       0.039 sec  (  0.8%)
Population analysis         ....       0.033 sec  (  0.7%)
Orbital Transformation      ....       0.023 sec  (  0.5%)
Orbital Orthonormalization  ....       0.000 sec  (  0.0%)
DIIS solution               ....       0.122 sec  (  2.5%)
SOSCF solution              ....       0.107 sec  (  2.2%)
Finished LeanSCF after   5.0 sec

Maximum memory used throughout the entire LEANSCF-calculation: 19.9 MB


-------------------------------------------------------------------------------
                          DFT DISPERSION CORRECTION                            
                                                                               
                              DFTD3 V3.1  Rev 1                                
                          USING Becke-Johnson damping                          
-------------------------------------------------------------------------------
The B3LYP functional is recognized
Active option DFTDOPT                   ...         4   

molecular C6(AA) [au] = 3866.478178 


            DFT-D V3
 parameters
 s6 scaling factor         :     1.0000 
 a1 scaling factor         :     0.3981 
 s8 scaling factor         :     1.9889 
 a2 scaling factor         :     4.4211 
 ad hoc parameters k1-k3   :    16.0000     1.3333    -4.0000 

 Edisp/kcal,au: -20.040043205153  -0.031935838255 
 E6   /kcal   :  -9.492989229 
 E8   /kcal   : -10.547053976 
 % E8         :  52.629896394 

-------------------------   ----------------
Dispersion correction           -0.031935838
-------------------------   ----------------


-------------------------   --------------------
FINAL SINGLE POINT ENERGY      -567.842120864770
-------------------------   --------------------



           ************************************************************
           *        Program running with 40 parallel MPI-processes    *
           *              working on a common directory               *
           ************************************************************
------------------------------------------------------------------------------
                         ORCA SCF GRADIENT CALCULATION
------------------------------------------------------------------------------

Nuc. rep. gradient        (SHARK) ... done (  0.0 sec)
HCore & Overlap gradient  (SHARK) ... done (  0.0 sec)
Split-RIJ-J gradient      (SHARK) ... done (  0.2 sec)
COSX-gradient                     ... done (  0.9 sec)
XC gradient                       ... done (  0.2 sec)
Dispersion correction             ... done (  0.1 sec)

-------------------
DISPERSION GRADIENT
-------------------

   1   O   :    0.000451833   -0.000119108    0.000201949
   2   O   :    0.000447544   -0.000198974   -0.000138855
   3   N   :    0.000557909   -0.000198092    0.000039605
   4   N   :   -0.000592374   -0.000015894    0.000004112
   5   C   :    0.000420636   -0.000158534    0.000032291
   6   C   :   -0.000371447   -0.000107473    0.000030769
   7   C   :    0.000108246    0.000072022    0.000567662
   8   C   :    0.000100690   -0.000185467   -0.000542547
   9   C   :   -0.000128884    0.000071919    0.000576781
  10   C   :   -0.000143823   -0.000185290   -0.000540980
  11   H   :    0.000090227    0.000044944    0.000342887
  12   H   :    0.000083332   -0.000110180   -0.000330149
  13   H   :   -0.000086182    0.000082525    0.000353839
  14   H   :   -0.000096433   -0.000078736   -0.000349135
  15   H   :   -0.000299836    0.000014338    0.000113116
  16   H   :   -0.000295977   -0.000043332   -0.000107208
  17   O   :   -0.000090445    0.000481147   -0.000112523
  18   H   :    0.000004460    0.000372700   -0.000084216
  19   H   :   -0.000159476    0.000261484   -0.000057397

Difference to translation invariance:
           :   -0.0000000000    0.0000000000    0.0000000000

Difference to rotation invariance:
           :    0.0000000000    0.0000000000    0.0000000000

Norm of the Dispersion gradient    ...    0.0020462842
RMS gradient                       ...    0.0002710370
MAX gradient                       ...    0.0005923736

------------------
CARTESIAN GRADIENT
------------------

   1   O   :    0.002146682   -0.000358646    0.001251607
   2   O   :    0.002205266   -0.001037637   -0.001480626
   3   N   :   -0.006103526    0.001946016    0.000195662
   4   N   :    0.010633482   -0.003437370    0.005517491
   5   C   :    0.004300561   -0.001456594    0.000131418
   6   C   :   -0.016989023    0.005969546    0.000781751
   7   C   :   -0.002381829    0.001038025    0.001229630
   8   C   :   -0.001838913    0.000398775   -0.000736289
   9   C   :    0.005155454   -0.001635345    0.002698958
  10   C   :    0.003082907   -0.002180539   -0.004210595
  11   H   :    0.000100521   -0.000044670   -0.000116617
  12   H   :   -0.000045158    0.000056575   -0.000018580
  13   H   :   -0.000202820    0.000088887   -0.000280616
  14   H   :   -0.000348363    0.000584691    0.001556745
  15   H   :    0.002902248    0.002725113    0.000459315
  16   H   :   -0.000123034    0.000160876   -0.007980076
  17   O   :    0.004030606   -0.005223787    0.001352745
  18   H   :    0.001279254    0.003400647   -0.000853966
  19   H   :   -0.007804315   -0.000994563    0.000502044

Difference to translation invariance:
           :    0.0000000000    0.0000000000   -0.0000000000

Difference to rotation invariance:
           :    0.0000986199   -0.0002354884   -0.0000632534

Norm of the Cartesian gradient     ...    0.0290084851
RMS gradient                       ...    0.0038422677
MAX gradient                       ...    0.0169890232

-------
TIMINGS
-------

Total SCF gradient time     ....        1.311 sec

Densities                   ....       0.001 sec  (  0.1%)
One electron gradient       ....       0.026 sec  (  2.0%)
RI-J Coulomb gradient       ....       0.166 sec  ( 12.7%)
COSX gradient               ....       0.865 sec  ( 66.0%)
XC gradient                 ....       0.199 sec  ( 15.2%)

Maximum memory used throughout the entire SCFGRAD-calculation: 30.4 MB
------------------------------------------------------------------------------
                         ORCA GEOMETRY RELAXATION STEP
------------------------------------------------------------------------------

Reading the OPT-File                    .... done
Getting information on internals        .... done
Copying old internal coords+grads       .... done
Making the new internal coordinates     .... (2022 redundants) done
Validating the new internal coordinates .... (2022 redundants) done
Calculating the B-matrix                .... done
Calculating the G,G- and P matrices     .... done
Transforming gradient to internals      .... done
Projecting the internal gradient        .... done
Number of atoms                         ....  19
Number of internal coordinates          .... 107
Current Energy                          ....  -567.842120865 Eh
Current gradient norm                   ....     0.029008485 Eh/bohr
Maximum allowed component of the step   ....  0.300
Current trust radius                    ....  0.300
Evaluating the initial hessian          ....  (Almloef) done
Projecting the Hessian                  .... done
Forming the augmented Hessian           .... done
Diagonalizing the augmented Hessian     .... done
Last element of RFO vector              ....  0.984584708
Lowest eigenvalues of augmented Hessian:
 -0.001032206  0.008899924  0.015120997  0.015125468  0.019660900
Length of the computed step             ....  0.177646892
The final length of the internal step   ....  0.177646892
Converting the step to Cartesian space:
 Initial RMS(Int)=    0.0171737732
Transforming coordinates:
 Iter   0:  RMS(Cart)=    0.0218115288 RMS(Int)=    1.0516635099
done
Storing new coordinates                 .... done

                                .--------------------.
          ----------------------|Geometry convergence|-------------------------
          Item                value                   Tolerance       Converged
          ---------------------------------------------------------------------
          RMS gradient        0.0017231358            0.0001000000      NO
          MAX gradient        0.0112969478            0.0003000000      NO
          RMS step            0.0171737732            0.0020000000      NO
          MAX step            0.0993629855            0.0040000000      NO
          ........................................................
          Max(Bonds)      0.0526      Max(Angles)    1.40
          Max(Dihed)        0.64      Max(Improp)    0.00
          ---------------------------------------------------------------------

The optimization has not yet converged - more geometry cycles are needed


    ---------------------------------------------------------------------------
                         Redundant Internal Coordinates
                            (Angstroem and degrees)

        Definition                    Value    dE/dq     Step     New-Value
    ----------------------------------------------------------------------------
     1. B(N   2,O   1)                1.2259  0.002548 -0.0015    1.2244   
     2. B(N   2,O   0)                1.2254  0.002066 -0.0012    1.2242   
     3. B(C   4,N   2)                1.4566 -0.001832  0.0022    1.4588   
     4. B(C   5,N   3)                1.3581 -0.011297  0.0095    1.3675   
     5. B(C   6,C   4)                1.3996  0.001770 -0.0015    1.3981   
     6. B(C   7,C   4)                1.4000  0.001629 -0.0014    1.3986   
     7. B(C   8,C   5)                1.4184  0.004053 -0.0038    1.4145   
     8. B(C   8,C   6)                1.3855 -0.000983  0.0008    1.3863   
     9. B(C   9,C   7)                1.3850 -0.000686  0.0006    1.3855   
    10. B(C   9,C   5)                1.4195  0.003232 -0.0031    1.4164   
    11. B(H  10,C   6)                1.0896 -0.000051  0.0001    1.0897   
    12. B(H  11,C   7)                1.0896 -0.000028  0.0000    1.0897   
    13. B(H  12,C   8)                1.0931 -0.000103  0.0002    1.0932   
    14. B(H  13,C   9)                1.0915 -0.001208  0.0018    1.0932   
    15. B(H  14,N   3)                1.0103  0.000645  0.0014    1.0118   
    16. B(H  15,N   3)                1.0183  0.005487 -0.0067    1.0117   
    17. B(H  17,O  16)                0.9665  0.000803 -0.0008    0.9656   
    18. B(H  18,H  15)                2.1963  0.000015  0.0461    2.2425   
    19. B(H  18,N   3)                2.1365 -0.000873  0.0525    2.1890   
    20. B(H  18,H  14)                2.1362 -0.001329  0.0526    2.1887   
    21. B(H  18,O  16)                0.9667  0.000283 -0.0003    0.9664   
    22. A(O   0,N   2,O   1)          124.21 -0.002084    0.26    124.47   
    23. A(O   0,N   2,C   4)          117.93  0.001206   -0.15    117.78   
    24. A(O   1,N   2,C   4)          117.85  0.000877   -0.10    117.75   
    25. A(H  14,N   3,H  18)           76.30 -0.000381    0.32     76.63   
    26. A(H  15,N   3,H  18)           79.70 -0.000434    0.08     79.78   
    27. A(C   5,N   3,H  14)          120.45 -0.000255    0.09    120.54   
    28. A(C   5,N   3,H  18)          118.32  0.001080   -0.31    118.01   
    29. A(H  14,N   3,H  15)          119.89  0.000942   -0.44    119.45   
    30. A(C   5,N   3,H  15)          119.51 -0.000670    0.33    119.84   
    31. A(N   2,C   4,C   6)          119.64  0.000323   -0.05    119.59   
    32. A(C   6,C   4,C   7)          120.73 -0.000489    0.08    120.81   
[...]
  13   H   :    0.000032148   -0.000005378    0.000038610
  14   H   :   -0.000047671    0.000167301    0.000110592
  15   H   :   -0.001908531   -0.000864091    0.003275155
  16   H   :   -0.000834418   -0.000485382    0.000222237
  17   O   :    0.000222892    0.000280525   -0.000015655
  18   H   :    0.000319889    0.000030303    0.000073785
  19   H   :   -0.000812215   -0.000027653   -0.000118668

Difference to translation invariance:
           :    0.0000000000    0.0000000000   -0.0000000001

Difference to rotation invariance:
           :    0.0000134830   -0.0000876554    0.0000404824

Norm of the Cartesian gradient     ...    0.0066129672
RMS gradient                       ...    0.0008759089
MAX gradient                       ...    0.0038246800

-------
TIMINGS
-------

Total SCF gradient time     ....        1.349 sec

Densities                   ....       0.001 sec  (  0.1%)
One electron gradient       ....       0.024 sec  (  1.8%)
RI-J Coulomb gradient       ....       0.154 sec  ( 11.4%)
COSX gradient               ....       0.904 sec  ( 67.0%)
XC gradient                 ....       0.200 sec  ( 14.8%)

Maximum memory used throughout the entire SCFGRAD-calculation: 30.5 MB
------------------------------------------------------------------------------
                         ORCA GEOMETRY RELAXATION STEP
------------------------------------------------------------------------------

Reading the OPT-File                    .... done
Getting information on internals        .... done
Copying old internal coords+grads       .... done
Making the new internal coordinates     .... (2022 redundants) done
Validating the new internal coordinates .... (2022 redundants) done
Calculating the B-matrix                .... done
Calculating the G,G- and P matrices     .... done
Transforming gradient to internals      .... done
Projecting the internal gradient        .... done
Number of atoms                         ....  19
Number of internal coordinates          .... 107
Current Energy                          ....  -567.850919844 Eh
Current gradient norm                   ....     0.006612967 Eh/bohr
Maximum allowed component of the step   ....  0.300
Current trust radius                    ....  0.700
Updating the Hessian (BFGS)             .... done
Forming the augmented Hessian           .... done
Diagonalizing the augmented Hessian     .... done
Last element of RFO vector              ....  0.775096313
Lowest eigenvalues of augmented Hessian:
 -0.000300969  0.000340402  0.000820977  0.002406448  0.002559384
Length of the computed step             ....  0.815180116
Warning: the length of the step is outside the trust region - taking restricted step instead
The input lambda is                     ....    -0.000914
   iter:   5  x=    0.000550  g=-1799.820036 f(x)=     0.003997
The output lambda is                    ....     0.000550 (8 iterations)
Evaluating lambda by bisection method.
   iter   5 best     0.007493 lambda    -0.156164
   iter  10 best     0.068288 lambda    -0.004797
   iter  15 best     0.688929 lambda    -0.000372
   iter  20 best     0.681853 lambda    -0.000377
   iter  25 best     0.688706 lambda    -0.000372
   iter  30 best     0.688922 lambda    -0.000372
   iter  35 best     0.688929 lambda    -0.000372
   iter  40 best     0.688929 lambda    -0.000372
   iter  45 best     0.688929 lambda    -0.000372
The output lambda is                    ....    -0.000372
The ideal lambda was not found, but a reduced step is possible.
The final length of the internal step   ....  0.676591590
Converting the step to Cartesian space:
 Initial RMS(Int)=    0.0654085778
Transforming coordinates:
 Iter   0:  RMS(Cart)=    0.0867642060 RMS(Int)=    0.0558221737
 Iter   5:  RMS(Cart)=    0.0000084105 RMS(Int)=    0.0000053317
done
Storing new coordinates                 .... done
The predicted energy change is          ....     0.191081504
Previously predicted energy change      ....    -0.000167820
Actually observed energy change         ....    -0.000137137
Ratio of predicted to observed change   ....     0.817168965
New trust radius                        ....     0.700000000

                                .--------------------.
          ----------------------|Geometry convergence|-------------------------
          Item                value                   Tolerance       Converged
          ---------------------------------------------------------------------
          Energy change      -0.0001371375            0.0000050000      NO
          RMS gradient        0.0003430330            0.0001000000      NO
          MAX gradient        0.0026522518            0.0003000000      NO
          RMS step            0.0654085778            0.0020000000      NO
          MAX step            0.3000000000            0.0040000000      NO
          ........................................................
          Max(Bonds)      0.0446      Max(Angles)    6.20
          Max(Dihed)       17.19      Max(Improp)    0.00
          ---------------------------------------------------------------------

The optimization has not yet converged - more geometry cycles are needed


    ---------------------------------------------------------------------------
                         Redundant Internal Coordinates
                            (Angstroem and degrees)

        Definition                    Value    dE/dq     Step     New-Value
    ----------------------------------------------------------------------------
     1. B(N   2,O   1)                1.2226 -0.000074  0.0000    1.2226   
     2. B(N   2,O   0)                1.2229 -0.000035  0.0001    1.2230   
     3. B(C   4,N   2)                1.4663  0.000255 -0.0000    1.4663   
     4. B(C   5,N   3)                1.3908  0.000383 -0.0009    1.3899   
     5. B(C   6,C   4)                1.3959 -0.000140  0.0001    1.3960   
     6. B(C   7,C   4)                1.3977 -0.000047 -0.0002    1.3976   
     7. B(C   8,C   5)                1.4090 -0.000203  0.0006    1.4096   
     8. B(C   8,C   6)                1.3896  0.000093 -0.0000    1.3896   
     9. B(C   9,C   7)                1.3880  0.000034  0.0001    1.3880   
    10. B(C   9,C   5)                1.4122  0.000178  0.0002    1.4124   
    11. B(H  10,C   6)                1.0895 -0.000022  0.0000    1.0895   
    12. B(H  11,C   7)                1.0896  0.000006 -0.0001    1.0896   
    13. B(H  12,C   8)                1.0932  0.000017 -0.0001    1.0931   
    14. B(H  13,C   9)                1.0912 -0.000028 -0.0002    1.0910   
    15. B(H  14,N   3)                1.0198  0.002652  0.0125    1.0323   
    16. B(H  15,N   3)                1.0168  0.000321 -0.0085    1.0083   
    17. B(H  17,O  16)                0.9671  0.000318 -0.0004    0.9668   
    18. B(H  18,H  15)                2.1328 -0.000059 -0.0446    2.0882   
    19. B(H  18,N   3)                2.1224 -0.000709  0.0157    2.1381   
    20. B(H  18,H  14)                2.8874  0.001187  0.0283    2.9157   
    21. B(H  18,O  16)                0.9719  0.000131 -0.0001    0.9718   
    22. A(O   0,N   2,O   1)          124.67  0.000009   -0.03    124.64   
    23. A(O   0,N   2,C   4)          117.66 -0.000002    0.01    117.67   
    24. A(O   1,N   2,C   4)          117.66 -0.000006    0.03    117.69   
    25. A(H  14,N   3,H  18)          130.17 -0.000300    0.23    130.40   
    26. A(H  15,N   3,H  18)           76.75  0.000263   -3.17     73.57   
    27. A(C   5,N   3,H  14)          115.31 -0.000315    1.93    117.23   
    28. A(C   5,N   3,H  18)          101.82  0.000528    1.28    103.10   
    29. A(H  14,N   3,H  15)          111.97 -0.000226   -1.92    110.05   
    30. A(C   5,N   3,H  15)          115.62  0.000291   -0.04    115.58   
    31. A(N   2,C   4,C   6)          119.32 -0.000102   -0.02    119.30   
    32. A(C   6,C   4,C   7)          121.26  0.000162    0.04    121.29   
    33. A(N   2,C   4,C   7)          119.42 -0.000060   -0.02    119.41   
    34. A(N   3,C   5,C   8)          120.78 -0.000251   -0.05    120.73   
    35. A(C   8,C   5,C   9)          119.13  0.000003    0.05    119.18   
    36. A(N   3,C   5,C   9)          120.02  0.000252    0.02    120.04   
    37. A(C   8,C   6,H  10)          121.64  0.000082   -0.01    121.63   
    38. A(C   4,C   6,H  10)          119.14  0.000031   -0.00    119.14   
    39. A(C   4,C   6,C   8)          119.22 -0.000113    0.02    119.23   
    40. A(C   4,C   7,C   9)          119.44 -0.000074   -0.02    119.42   
    41. A(C   9,C   7,H  11)          121.52  0.000085    0.05    121.57   
    42. A(C   4,C   7,H  11)          119.04 -0.000011   -0.03    119.00   
    43. A(C   6,C   8,H  12)          119.74 -0.000084    0.00    119.75   
    44. A(C   5,C   8,C   6)          120.61  0.000070   -0.07    120.54   
    45. A(C   5,C   8,H  12)          119.65  0.000015    0.06    119.71   
    46. A(C   5,C   9,C   7)          120.34 -0.000047   -0.02    120.33   
    47. A(C   7,C   9,H  13)          120.76  0.000163    0.21    120.97   
    48. A(C   5,C   9,H  13)          118.85 -0.000119   -0.18    118.67   
    49. A(N   3,H  14,H  18)           34.17 -0.000096   -0.22     33.95   
    50. A(N   3,H  15,H  18)           75.61 -0.000390    3.23     78.84   
    51. A(H  17,O  16,H  18)          103.14 -0.000131    0.18    103.32   
    52. A(N   3,H  18,O  16)          139.23  0.000041   -2.82    136.41   
    53. A(H  14,H  18,O  16)          152.59  0.000395   -6.10    146.49   
    54. A(N   3,H  18,H  15)           27.65  0.000128   -0.06     27.59   
    55. A(H  14,H  18,H  15)           35.43  0.000352   -1.11     34.32   
    56. A(H  15,H  18,O  16)          117.50  0.000018   -6.20    111.30   
    57. A(N   3,H  18,H  14)           15.66  0.000396   -0.01     15.65   
    58. D(C   7,C   4,N   2,O   0)    179.73  0.000026   -0.01    179.72   
    59. D(C   7,C   4,N   2,O   1)     -0.28 -0.000040    0.04     -0.24   
    60. D(C   6,C   4,N   2,O   0)     -0.14  0.000025   -0.08     -0.23   
    61. D(C   6,C   4,N   2,O   1)    179.85 -0.000041   -0.03    179.82   
    62. D(C   8,C   5,N   3,H  14)    -17.74 -0.000128   -1.04    -18.78   
    63. D(C   8,C   5,N   3,H  18)    128.15 -0.000319    2.75    130.90   
    64. D(C   9,C   5,N   3,H  15)     32.11  0.000188   -0.57     31.54   
    65. D(C   9,C   5,N   3,H  14)    165.40 -0.000193   -1.26    164.14   
    66. D(C   8,C   5,N   3,H  15)   -151.03  0.000253   -0.35   -151.37   
    67. D(H  10,C   6,C   4,C   7)   -179.95 -0.000003   -0.03   -179.98   
    68. D(C   8,C   6,C   4,C   7)      0.38  0.000004   -0.05      0.33   
    69. D(H  10,C   6,C   4,N   2)     -0.07 -0.000002    0.04     -0.03   
    70. D(C   8,C   6,C   4,N   2)   -179.75  0.000005    0.02   -179.73   
    71. D(C   9,C   7,C   4,C   6)     -0.21 -0.000008    0.08     -0.12   
    72. D(C   9,C   7,C   4,N   2)    179.92 -0.000010    0.01    179.93   
    73. D(H  11,C   7,C   4,C   6)    179.57  0.000006    0.10    179.66   
    74. D(H  11,C   7,C   4,N   2)     -0.31  0.000004    0.03     -0.28   
    75. D(H  12,C   8,C   6,H  10)      0.08 -0.000002   -0.00      0.08   
    76. D(H  12,C   8,C   6,C   4)    179.74 -0.000009    0.02    179.76   
    77. D(C   5,C   8,C   6,H  10)   -179.65 -0.000003   -0.05   -179.70   
    78. D(C   5,C   8,C   6,C   4)      0.02 -0.000010   -0.03     -0.01   
    79. D(H  12,C   8,C   5,C   9)    179.71  0.000021    0.02    179.73   
    80. D(H  12,C   8,C   5,N   3)      2.82 -0.000050   -0.20      2.62   
    81. D(C   6,C   8,C   5,C   9)     -0.57  0.000023    0.07     -0.49   
    82. D(C   6,C   8,C   5,N   3)   -177.46 -0.000049   -0.15   -177.60   
    83. D(C   5,C   9,C   7,C   4)     -0.36  0.000021   -0.04     -0.40   
    84. D(H  13,C   9,C   5,C   8)   -176.77  0.000043   -0.41   -177.18   
    85. D(H  13,C   9,C   5,N   3)      0.15  0.000098   -0.20     -0.05   
    86. D(C   7,C   9,C   5,C   8)      0.74 -0.000028   -0.04      0.70   
    87. D(C   5,C   9,C   7,H  11)    179.87  0.000007   -0.05    179.82   
    88. D(C   7,C   9,C   5,N   3)    177.66  0.000028    0.18    177.83   
    89. D(H  13,C   9,C   7,H  11)     -2.67 -0.000073    0.32     -2.35   
    90. D(H  13,C   9,C   7,C   4)    177.10 -0.000058    0.33    177.43   
    91. D(H  18,H  14,N   3,H  15)    -90.97 -0.000043    6.12    -84.85   
    92. D(H  18,H  14,N   3,C   5)    134.08  0.000085    5.96    140.04   
    93. D(H  18,H  15,N   3,H  14)    128.29 -0.000242   -0.98    127.31   
    94. D(H  18,H  15,N   3,C   5)    -96.92 -0.000661    0.00    -96.92   
    95. D(H  15,H  18,O  16,H  17)   -124.74  0.000010  -10.43   -135.18   
    96. D(N   3,H  18,O  16,H  17)   -102.49  0.000253  -16.54   -119.03   
    97. D(H  14,H  18,O  16,H  17)   -117.34 -0.000177   -6.74   -124.08   
    98. D(O  16,H  18,H  15,N   3)    147.80 -0.000191    8.23    156.03   
    99. D(H  15,H  18,H  14,N   3)     49.69 -0.000262    3.77     53.46   
   100. D(O  16,H  18,H  14,N   3)     38.33  0.000128    7.09     45.41   
   101. D(H  15,H  18,N   3,C   5)    113.86  0.000246   -0.89    112.97   
   102. D(H  14,H  18,N   3,H  15)    107.71 -0.000090   -5.23    102.48   
   103. D(H  14,H  18,H  15,N   3)    -26.33 -0.000468   -1.55    -27.88   
   104. D(H  14,H  18,N   3,C   5)   -138.43  0.000157   -6.12   -144.55   
   105. D(O  16,H  18,N   3,H  15)    -46.37 -0.000358   13.50    -32.87   
   106. D(O  16,H  18,N   3,H  14)   -154.08 -0.000268   17.19   -136.89   
   107. D(O  16,H  18,N   3,C   5)     67.49 -0.000112   12.61     80.10   
    ----------------------------------------------------------------------------

Geometry step timings:
Preparation and reading OPT file:      0.001 s (18.883 %)
Internal coordinates            :      0.000 s ( 0.553 %)
B/P matrices and projection     :      0.001 s (17.891 %)
Hessian update/contruction      :      0.001 s ( 8.194 %)
Making the step                 :      0.002 s (32.039 %)
Converting the step to Cartesian:      0.000 s ( 2.169 %)
Storing new data                :      0.000 s ( 0.539 %)
Checking convergence            :      0.000 s ( 0.383 %)
Final printing                  :      0.001 s (19.266 %)
Total time                      :      0.007 s

Time for energy+gradient        :     10.972 s
Time for complete geometry iter :     12.357 s




    ----------------------------------------------------------------------------
                                  WARNING !!!
       The optimization did not converge but reached the maximum number of
       optimization cycles.
       Please check your results very carefully.
    ----------------------------------------------------------------------------



--------------------------------
SUGGESTED CITATIONS FOR THIS RUN
--------------------------------

Below you find a list of papers that are relevant to this ORCA run
We neither can nor want to force you to cite these papers, but we appreciate if you do
You receive ORCA, which is the product of decades of hard work by many enthusiastic individuals, for free
The only thing we kindly ask in return is that you cite our papers,
We deeply appreciate it, if you show your appreciation for ORCA by not just citing the generic ORCA reference.

Please note that relegating all ORCA citations to the supporting information does *not* help us.
SI sections are not indexed - citations you put there will not count into any citation statistics
But we need these citations in order to attract the funding resources that allow us to do what we are doing

Therefore, if you are a happy ORCA user, please consider citing a few of the papers listed below in the main body of your paper

In addition to the list printed below, the program has created the file 4nitroaniline_water_2_OPT.bibtex that contains the list in bibtex format
You can import this file easily into all common literature databanks and citation aid programs


List of essential papers. We consider these as the minimum necessary citations

  1. Neese,F.
     Software update: the ORCA program system, version 5.0
     WIRES Comput. Molec. Sci., 2022 12(1)e1606
     doi.org/10.1002/wcms.1606

List of papers to cite with high priority. The work reported in these papers was absolutely
necessary for this run to complete.
Our perspective: the developers of density functionals and basis sets usually get cited in chemistry papers
Good! But without the algorithms to do something with them, the functionals or basis sets would not do anything.
Hence, in our opinion, the algorithm design and method developments papers are equally worthy of getting cited

  1. Neese,F.
     An improvement of the resolution of the identity approximation for the formation of the Coulomb matrix
     J. Comp. Chem., 2003 24(14)1740-1747
     doi.org/10.1002/jcc.10318
  2. Neese,F.; Wennmohs,F.; Hansen,A.; Becker,U.
     Efficient, approximate and parallel Hartree-Fock and hybrid DFT calculations. A 'chain-of-spheres' algorithm for the Hartree-Fock exchange
     Chem. Phys., 2009 356(1-3)98-109
     doi.org/10.1016/j.chemphys.2008.10.036
  3. Helmich-Paris,B.; de Souza,B.; Neese,F.; Izsák,R.
     An improved chain of spheres for exchange algorithm
     J. Chem. Phys., 2021 155 104109
     doi.org/doi: 10.1063/5.0058766.
  4. Neese,F.
     The SHARK Integral Generation and Digestion System
     J. Comp. Chem., 2022  1-16
     doi.org/10.1002/jcc.26942
  5. Grimme,S.; Antony,J.; Ehrlich,S.; Krieg,H.
     A consistent and accurate ab initio parametrization of density functional dispersion correction (DFT-D) for the 94 elements H-Pu
     J. Chem. Phys., 2010 132 154104
     doi.org/10.1063/1.3382344
  6. Grimme,S.; Ehrlich,S.; Goerigk,L.
     Effect of the damping function in dispersion corrected density functional theory
     J. Comput. Chem., 2011 32(7)1456-1465
     doi.org/10.1002/jcc.21759

List of suggested additional citations. These are papers that are important in the 'surrounding' of 
of this run, or papers that preceded the highly important papers. If you like your results we are grateful for a citation.

  1. Izsak,R.; Neese,F.
     An overlap fitted chain of spheres exchange method
     J. Chem. Phys., 2011 135 144105
     doi.org/10.1063/1.3646921
  2. Izsak,R.; Hansen,A.; Neese,F.
     The resolution of identity and chain of spheres approximations for the LPNO-CCSD singles Fock term
     Molec. Phys., 2012 110 2413-2417
     doi.org/10.1080/00268976.2012.687466
  3. Neese,F.
     The ORCA program system
     WIRES Comput. Molec. Sci., 2012 2(1)73-78
     doi.org/10.1002/wcms.81
  4. Izsak,R.; Neese,F.; Klopper,W.
     Robust fitting techniques in the chain of spheres approximation to the Fock exchange: The role of the complementary space
     J. Chem. Phys., 2013 139 
     doi.org/10.1063/1.4819264
  5. Neese,F.
     Software update: the ORCA program system, version 4.0
     WIRES Comput. Molec. Sci., 2018 8(1)1-6
     doi.org/10.1002/wcms.1327
  6. Neese,F.; Wennmohs,F.; Becker,U.; Riplinger,C.
     The ORCA quantum chemistry program package
     J. Chem. Phys., 2020 152 Art. No. L224108
     doi.org/10.1063/5.0004608

List of optional additional citations

  1. Neese,F.
     Approximate second-order SCF convergence for spin unrestricted wavefunctions
     Chem. Phys. Lett., 2000 325(1-3)93-98
     doi.org/10.1016/s0009-2614(00)00662-x

Timings for individual modules:

Sum of individual times          ...      605.947 sec (=  10.099 min)
Startup calculation              ...      130.128 sec (=   2.169 min)  21.5 %
SCF iterations                   ...      316.479 sec (=   5.275 min)  52.2 %
SCF Gradient evaluation          ...      158.880 sec (=   2.648 min)  26.2 %
Geometry relaxation              ...        0.460 sec (=   0.008 min)   0.1 %
                             ****ORCA TERMINATED NORMALLY****
TOTAL RUN TIME: 0 days 0 hours 11 minutes 28 seconds 258 msec
