LAMMPS data file via write_data, version 2 Aug 2023, timestep = 200008, units = real

40 atoms
4 atom types

-15 15 xlo xhi
-15 15 ylo yhi
-15 15 zlo zhi

Masses

1 15.9994
2 1.00794
3 15.9994
4 15.9994

Atoms # charge

40 4 -0.1617455486704844 0.0923287182241852 4.3070850357025545 -4.190677114483805 0 0 0
39 4 -0.1912516719950818 1.018848193652295 4.748828223988191 -3.5773681432817717 0 0 0
37 2 0.1321449646497473 4.608969 -3.8286 1.439678 0 0 0
2 3 -0.6493919996001943 -4.093572 -1.399029 1.232661 0 0 0
12 1 -0.1976515559379471 -3.716933 -0.800485 -1.469755 0 0 0
17 1 -0.05687042424482047 -4.63815 0.394721 -1.456949 0 0 0
19 1 -0.2327035508802838 -5.920806 0.372055 -1.088332 0 0 0
24 2 0.1177550074375327 -3.266383 -0.903905 -2.471505 0 0 0
25 2 0.1711910422964416 -4.296793 -1.713952 -1.267466 0 0 0
31 2 0.1396298009981256 -4.175928 1.346007 -1.750676 0 0 0
34 2 0.3133908286215512 -4.133634 -1.554311 2.185145 0 0 0
35 2 0.1315964149724222 -6.532081 1.279261 -1.08624 0 0 0
36 2 0.1598765171485411 -6.402135 -0.556626 -0.765117 0 0 0
1 3 -0.6265638982733808 0.17169 2.057246 -1.802725 0 0 0
3 1 -0.03082367279681465 1.050346 0.444506 -0.274697 0 0 0
4 1 0.04999893196132414 -0.305395 -0.008963 0.123537 0 0 0
5 1 5.802358790848658e-05 -2.604705 -0.656007 -0.45342 0 0 0
6 1 -0.110248148866793 -1.339462 -0.192201 -0.812935 0 0 0
8 1 -0.1354888389469593 2.187003 -0.132062 0.311259 0 0 0
9 1 0.2621967032888058 1.257724 1.472379 -1.224712 0 0 0
10 1 -0.1108271639225258 -0.586309 -0.30619 1.466332 0 0 0
11 1 0.265746057045248 -2.854163 -0.945741 0.902383 0 0 0
15 1 -0.1626784168265363 -1.842972 -0.770883 1.852322 0 0 0
16 1 -0.1531448809181836 2.556443 1.878716 -1.546186 0 0 0
21 2 0.1773197096938809 -1.148607 0.030136 -1.86322 0 0 0
22 2 0.1297950684320004 2.04281 -0.949452 1.021547 0 0 0
23 2 0.1207943723417237 0.182952 -0.156 2.226689 0 0 0
29 2 0.1275040047905716 -2.046613 -0.992006 2.905191 0 0 0
30 2 0.1665675922986494 2.698269 2.677347 -2.281971 0 0 0
33 2 0.3838818606680001 0.470608 2.763201 -2.390447 0 0 0
7 1 0.02987753096805579 3.494118 0.268234 0.005916 0 0 0
13 1 -0.234572139877963 4.679642 -0.392949 0.686038 0 0 0
14 1 -0.1201537028825067 3.66369 1.284465 -0.938877 0 0 0
18 1 -0.07376168997917427 4.666704 -1.892876 0.565789 0 0 0
20 1 -0.2534820540386267 4.6241 -2.745812 1.592897 0 0 0
26 2 0.1229032178293982 5.607406 0.003244 0.237321 0 0 0
27 2 0.1301912812651606 4.705088 -0.115308 1.754873 0 0 0
28 2 0.1156161943438417 4.669291 1.619038 -1.208331 0 0 0
32 2 0.1231892046064379 4.673208 -2.284922 -0.459296 0 0 0
38 2 0.130135029412907 4.60538 -2.389875 2.628982 0 0 0

Velocities

40 -0.001542969117010849 -3.787556573639141e-05 0.002791779830860079
39 0.0010032152755079945 -0.0009736044875903638 -0.0006156728705854499
37 0 0 0
2 0 0 0
12 0 0 0
17 0 0 0
19 0 0 0
24 0 0 0
25 0 0 0
31 0 0 0
34 0 0 0
35 0 0 0
36 0 0 0
1 0 0 0
3 0 0 0
4 0 0 0
5 0 0 0
6 0 0 0
8 0 0 0
9 0 0 0
10 0 0 0
11 0 0 0
15 0 0 0
16 0 0 0
21 0 0 0
22 0 0 0
23 0 0 0
29 0 0 0
30 0 0 0
33 0 0 0
7 0 0 0
13 0 0 0
14 0 0 0
18 0 0 0
20 0 0 0
26 0 0 0
27 0 0 0
28 0 0 0
32 0 0 0
38 0 0 0
