
                                 *****************
                                 * O   R   C   A *
                                 *****************

                                            #,                                       
                                            ###                                      
                                            ####                                     
                                            #####                                    
                                            ######                                   
                                           ########,                                 
                                     ,,################,,,,,                         
                               ,,#################################,,                 
                          ,,##########################################,,             
                       ,#########################################, ''#####,          
                    ,#############################################,,   '####,        
                  ,##################################################,,,,####,       
                ,###########''''           ''''###############################       
              ,#####''   ,,,,##########,,,,          '''####'''          '####       
            ,##' ,,,,###########################,,,                        '##       
           ' ,,###''''                  '''############,,,                           
         ,,##''                                '''############,,,,        ,,,,,,###''
      ,#''                                            '''#######################'''  
     '                                                          ''''####''''         
             ,#######,   #######,   ,#######,      ##                                
            ,#'     '#,  ##    ##  ,#'     '#,    #''#        ,####,   ,####,        
            ##       ##  ##   ,#'  ##            #'  '#       #'       #'  '#        
            ##       ##  #######   ##           ,######,      #####,   #    #        
            '#,     ,#'  ##    ##  '#,     ,#' ,#      #,     #,   #   #,  ,#        
             '#######'   ##     ##  '#######'  #'      '#     '####' # '####'        



                #########################################################
                #                        -***-                          #
                #          Department of theory and spectroscopy        #
                #                                                       #
                #                      Frank Neese                      #
                #                                                       #
                #     Directorship, Architecture, Infrastructure        #
                #                    SHARK, DRIVERS                     #
                #        Core code/Algorithms in most modules           #
                #                                                       #
                #        Max Planck Institute fuer Kohlenforschung      #
                #                Kaiser Wilhelm Platz 1                 #
                #                 D-45470 Muelheim/Ruhr                 #
                #                      Germany                          #
                #                                                       #
                #                  All rights reserved                  #
                #                        -***-                          #
                #########################################################


                         Program Version 6.0.1  -  RELEASE   -


 With contributions from (in alphabetic order):
[Max-Planck-Institut fuer Kohlenforschung]                               
  Daniel Aravena         : Magnetic Suceptibility                        
  Michael Atanasov       : Ab Initio Ligand Field Theory (pilot matlab implementation)
  Alexander A. Auer      : GIAO ZORA, VPT2 properties, NMR spectrum      
  Ute Becker             : All parallelization in ORCA, NUMFREQ, NUMCALC 
  Giovanni Bistoni       : ED, misc. LED, open-shell LED, HFLD           
  Martin Brehm           : Molecular dynamics                            
  Dmytro Bykov           : pre 5.0 version of the SCF Hessian            
  Marcos Casanova-Páez   : Triplet and SCS-CIS(D). UHF-(DLPNO)-IP/EA/STEOM-CCSD. UHF-CVS-IP/STEOM-CCSD   
  Vijay G. Chilkuri      : MRCI spin determinant printing, contributions to CSF-ICE 
  Pauline Colinet        : FMM embedding                                 
  Dipayan Datta          : RHF DLPNO-CCSD density                        
  Achintya Kumar Dutta   : EOM-CC, STEOM-CC                              
  Nicolas Foglia         : Exact transition moments, OPA infrastructure, MCD improvements    
  Dmitry Ganyushin       : Spin-Orbit,Spin-Spin,Magnetic field MRCI      
  Miquel Garcia-Rates    : C-PCM and meta-GGA Hessian, CCSD/C-PCM, Gaussian charge scheme 
  Tiago L. C. Gouveia    : GS-ROHF, GS-ROCIS                             
  Yang Guo               : DLPNO-NEVPT2, F12-NEVPT2, CIM, IAO-localization        
  Andreas Hansen         : Spin unrestricted coupled pair/coupled cluster methods 
  Ingolf Harden          : AUTO-CI MPn and infrastructure                
  Benjamin Helmich-Paris : MC-RPA, TRAH-(SCF,CASSCF), AVAS, COSX integrals, SCF dyn. polar. 
  Lee Huntington         : MR-EOM, pCC                                   
  Robert Izsak           : Overlap fitted RIJCOSX, COSX-SCS-MP3, EOM     
  Riya Kayal             : Wick's Theorem for AUTO-CI, AUTO-CI UHF-CCSDT 
  Emily Kempfer          : AUTO-CI, RHF CISDT and CCSDT                  
  Christian Kollmar      : KDIIS, OOCD, Brueckner-CCSD(T), CCSD density, CASPT2, CASPT2-K, improved NEVPT2 
  Axel Koslowski         : Symmetry handling                             
  Simone Kossmann        : meta-GGA functionals, TD-DFT gradient, OOMP2, (MP2 Hessian; deprecated post 5.0) 
  Lucas Lang             : DCDCAS                                        
  Marvin Lechner         : AUTO-CI (C++ implementation), FIC-MRCC        
  Spencer Leger          : CASSCF response                               
  Dagmar Lenk            : GEPOL surface, SMD, ORCA-2-JSON               
  Dimitrios Liakos       : Extrapolation schemes; Compound Job, initial MDCI parallelization 
  Dimitrios Manganas     : Further ROCIS development; embedding schemes. LFT, Crystal Embedding 
  Dimitrios Pantazis     : SARC Basis sets                               
  Anastasios Papadopoulos: AUTO-CI, single reference methods and gradients 
  Taras Petrenko         : pre 6.0 DFT Hessian and TD-DFT gradient, (ASA, deprecated), ECA, 1-Electron XAS/XES, NRVS 
  Peter Pinski           : DLPNO-MP2, DLPNO-MP2 Gradient                 
  Christoph Reimann      : Effective Core Potentials                     
  Marius Retegan         : Local ZFS, SOC                                
  Christoph Riplinger    : Optimizer, TS searches, QM/MM, DLPNO-CCSD(T), (RO)-DLPNO pert. Triples 
  Michael Roemelt        : Original ROCIS implementation                 
  Masaaki Saitow         : Open-shell DLPNO-CCSD energy and density      
  Barbara Sandhoefer     : DKH picture change effects                    
  Kantharuban Sivalingam : CASSCF convergence/infrastructure, NEVPT2 and variants, FIC-MRCI 
  Bernardo de Souza      : ESD, SOC TD-DFT                               
  Georgi L. Stoychev     : AutoAux, RI-MP2 NMR, DLPNO-MP2 response, X2C  
  Van Anh Tran           : RI-MP2 g-tensors                              
  Willem Van den Heuvel  : Paramagnetic NMR                              
  Zikuan Wang            : NOTCH, Electric field optimization            
  Frank Wennmohs         : Technical directorship and infrastructure     
  Hang Xu                : AUTO-CI-Response properties                   
                                                                         
[FACCTs GmbH]                                                            
  Markus Bursch, Miquel Garcia-Rates, Christoph Riplinger, Bernardo de Souza, Georgi L. Stoychev 
                                                                 
  APM, Basis sets (HGBS, AHGBS, def-TZVP (Ac-Lr), def2-XVPD (La-Lu)), CI-OPT, improved COSX, DLPNO-Multilevel,           
  DOCKER, DRACO, updates on ESD, GOAT, IRC, LR-CPCM, MBIS, meta-GGA TD-DFT gradient, ML-optimized integration grids, 
  MM, NACMEs, nearIR, NEB, NEB-TS, NL-DFT gradient (VV10), 2- and 3-layer-ONIOM, interface openCOSMO-RS, QMMM,   
  Crystal-QMMM, SF, symmetry and pop. for TD-DFT, r2SCAN hybrids, SOLVATOR                                   
                                                                         
[Other institutions]                                                     
  V. Asgeirsson          : NEB                                           
  Christoph Bannwarth    : sTDA-DFT, sTD-DFT, PBEh-3c, B97-3c, D3        
  Sebastian Ehlert       : rSCAN, r2SCAN, r2SCAN-3c, D4, dhf basis sets  
  Marvin Friede          : D4 for Fr, Ra, Ac-Lr                          
  Lars Goerigk           : TD-DFT with DH, B97 family of functionals     
  Stefan Grimme          : VdW corrections, initial TS optimization, DFT functionals, gCP, sTDA/sTD-DF 
  Waldemar Hujo          : DFT-NL                                        
  H. Jonsson             : NEB                                           
  Holger Kruse           : gCP                                           
  Marcel Mueller         : wB97X-3c, vDZP basis set                      
  Hagen Neugebauer       : wr2SCAN                                       
  Tobias Risthaus        : range-separated hybrid DFT                    
  Lukas Wittmann         : regularized MP2, r2SCAN double-hybrids, wr2SCAN        
                                                                         
We gratefully acknowledge several colleagues who have allowed us to      
interface, adapt or use parts of their codes:                            
  Ed Valeev, F. Pavosevic, A. Kumar             : LibInt (2-el integral package), F12 methods 
  Garnet Chan, S. Sharma, J. Yang, R. Olivares  : DMRG                   
  Ulf Ekstrom                                   : XCFun DFT Library      
  Mihaly Kallay                                 : mrcc  (arbitrary order and MRCC methods)
  Frank Weinhold                                : gennbo (NPA and NBO analysis)           
  Simon Mueller                                 : openCOSMO-RS                            
  Christopher J. Cramer and Donald G. Truhlar   : smd solvation model                     
  S Lehtola, MJT Oliveira, MAL Marques          : LibXC Library                           
  Liviu Ungur et al                             : ANISO software                          


 Your calculation uses the libint2 library for the computation of 2-el integrals
 For citations please refer to: http://libint.valeyev.net

 Your ORCA version has been built with support for libXC version: 6.2.2
 For citations please refer to: https://libxc.gitlab.io

 This ORCA versions uses:
   CBLAS   interface :  Fast vector & matrix operations
   LAPACKE interface :  Fast linear algebra routines
   SCALAPACK package :  Parallel linear algebra routines
   Shared memory     :  Shared parallel matrices
   BLAS/LAPACK       :  OpenBLAS 0.3.27  USE64BITINT DYNAMIC_ARCH NO_AFFINITY SkylakeX SINGLE_THREADED
        Core in use  :  SkylakeX
   Copyright (c) 2011-2014, The OpenBLAS Project


NOTE: MaxCore=3500 MB was set to SCF,MP2,MDCI,CIPSI,MRCI and CIS
      => If you want to overwrite this, your respective input block should be placed after the MaxCore statement
Your calculation utilizes the atom-pairwise dispersion correction
with the zero-damping scheme (D30)


XCFun DFT library Copyright 2009-2010 Ulf Ekstrom and contributors.
See http://admol.org/xcfun for more information.
This is free software; see the source code for copying conditions.
There is ABSOLUTELY NO WARRANTY; not even for MERCHANTABILITY or FITNESS FOR A PARTICULAR PURPOSE.
For details see the documentation.
Scientific users of this library should cite U. Ekstrom, L. Visscher, R. Bast, A. J. Thorvaldsen and K. Ruud;
J.Chem.Theor.Comp. 2010, DOI: 10.1021/ct100117s
XCFun Version 0.99 

Warning: RI is on but no J-basis has been assigned. Assigning Def2/J (nothing to worry about!)
================================================================================

----- Orbital basis set information -----
Your calculation utilizes the basis: def2-TZVPP
   F. Weigend and R. Ahlrichs, Phys. Chem. Chem. Phys. 7, 3297 (2005).

----- AuxJ basis set information -----
Your calculation utilizes the auxiliary basis: def2/J
   F. Weigend, Phys. Chem. Chem. Phys. 8, 1057 (2006).

================================================================================
                                        WARNINGS
                       Please study these warnings very carefully!
================================================================================


WARNING: your system is open-shell and RHF/RKS was chosen
  ===> : WILL SWITCH to UHF/UKS


================================================================================
                                       INPUT FILE
================================================================================
NAME = c60_o2_SP_17.inp
|  1> ! wB97X-D3 def2-TZVPP TightSCF RIJCOSX SP
|  2> 
|  3> %pal
|  4> nprocs 28
|  5> end
|  6> 
|  7> %maxcore 3500
|  8> 
|  9> 
| 10> * xyz -1 2
| 11>   C           3.35096126731593     -1.81962039464228      0.18518331907432
| 12>   C           3.63332473209393     -0.39198992234619      0.22228274680514
| 13>   C           3.27941622566001      0.35205526741693      1.34559144229746
| 14>   C           2.71927171263401     -2.43184982987795      1.26878393175835
| 15>   C           2.96673224808897     -2.15748463428514     -1.16737111697225
| 16>   C           3.43202798949028      0.14535755703524     -1.10789930553608
| 17>   C           2.71405579867173      1.68226853680290      1.18149026574499
| 18>   C           2.62149115545596     -0.28296875272176      2.46474546142551
| 19>   C           1.67614815586849     -3.41511447416296      1.02735339709934
| 20>   C           2.34542735944751     -1.65643528677449      2.42975670861508
| 21>   C           1.96699294996522     -3.09863346864405     -1.39928738479379
| 22>   C           3.00876173357195     -0.93609431171885     -1.96121352400788
| 23>   C           2.85327559972743      1.41360311522056     -1.26135958983148
| 24>   C           1.67858404272940      1.85551719895545      2.16873202323100
| 25>   C           2.50269623140013      2.17365333329810     -0.10218924449309
| 26>   C           1.61692952615213      0.63928391850843      2.94684383675822
| 27>   C           1.31250486110706     -3.74287065070099     -0.27112226959128
| 28>   C           0.65285915810990     -3.23619731757116      2.04461332115239
| 29>   C           1.06688826454981     -2.13778077182250      2.90125293256978
| 30>   C           0.97774123456324     -2.87738807605630     -2.43150555988920
| 31>   C           2.04411223710193     -0.71159078035359     -2.93964862228332
| 32>   C           1.83469256093589      1.65715298486985     -2.25453302482318
| 33>   C           0.53789624040181      2.61330126679876      1.88293965637909
| 34>   C           1.35030025569356      2.98978853107777     -0.38167479937057
| 35>   C           0.38231590997911      0.18828659391005      3.38441191385464
| 36>   C          -0.08869246691223     -3.91453743289385     -0.61302202364843
| 37>   C          -0.68559360762076     -3.40064997824329      1.71793008519411
| 38>   C           0.10799188460735     -1.24360498603696      3.38124389546096
| 39>   C          -0.28881094938096     -3.37782466170014     -1.94998435724456
| 40>   C           1.01836297490526     -1.69625952568369     -3.19136398167209
| 41>   C           1.45284200089758      0.61479364758557     -3.09009110537441
| 42>   C           0.85501102200997      2.62053905584509     -1.72206323925779
| 43>   C           0.57656800173021      3.43622842615012      0.67711176680462
| 44>   C          -0.78365818977597      2.11473870006325      2.27766500515816
| 45>   C          -0.82287263936862      0.91314090508099      3.04294618349329
| 46>   C          -1.06529746252252     -3.75103832118112      0.35953509318105
| 47>   C          -1.68295236945873     -2.47450247921408      2.23024416945673
| 48>   C          -1.27967843613382     -1.41360358013112      3.04146787596366
| 49>   C          -1.47345408252980     -2.70497447840855     -2.24878045847200
| 50>   C          -0.20743356928314     -0.98712647475520     -3.48623790637939
| 51>   C           0.06500226053828      0.44488315981650     -3.42958946810999
| 52>   C          -0.50084083264294      2.45548711333841     -2.05330941274319
| 53>   C          -1.53726118723103      3.17939462567938      0.16379934403965
| 54>   C          -1.86007926999952      2.31914105190413      1.29825802757514
| 55>   C          -1.84816114494043     -0.08482495370786      2.84253589869882
| 56>   C          -2.29965635140334     -3.04807953559970      0.04731024932268
| 57>   C          -2.68270461975382     -2.27564329055141      1.20487664017697
| 58>   C          -2.49275482791059     -2.53866261612587     -1.23900884860780
| 59>   C          -1.42851225649978     -1.48289543917801     -3.04099986800428
| 60>   C          -0.88235692046692      1.32523880082774     -2.91813939110188
| 61>   C          -1.62030657893093      2.62547623212643     -1.10424271917538
| 62>   C          -2.79392472048249      1.30447030619240      1.07804348085153
| 63>   C          -2.81667213667462      0.09289906390052      1.86661140528609
| 64>   C          -3.25248042133669     -1.00457060740014      1.03569556426287
| 65>   C          -3.08145150580192     -1.21804489912102     -1.41220859085745
| 66>   C          -2.42852732637829     -0.57481327868194     -2.53374693153920
| 67>   C          -2.15156141604904      0.79752187200815     -2.48082090567666
| 68>   C          -2.55206303439934      1.55373270930193     -1.33299178497866
| 69>   C          -3.20181050435649      0.95483069256306     -0.26017533358511
| 70>   C          -3.45691957592596     -0.47660941677545     -0.29447777647060
| 71>   H           0.50450265543631      4.54023643353833      4.74050380543976
| 72>   C          -0.36639847765210      5.21004232709259      4.69394354597325
| 73>   H          -0.47293596843764      5.71849823200768      5.66404645532918
| 74>   H           0.69362115811152      6.85435711454109      3.74105031734162
| 75>   C          -0.19553702546315      6.22871942010310      3.58410556958423
| 76>   O           0.03436513518015      5.57501231935867      2.33516195531203
| 77>   H          -1.26320508895551      4.59763624297185      4.52281152941560
| 78>   C          -1.03021444985516      5.12254435542121      1.67819460716468
| 79>   C          -0.60700544910989      4.30981546578457      0.44445649850616
| 80>   O          -2.16923347886016      5.34909394522667      1.98106792002667
| 81>   H          -1.07980012686446      6.87731163698933      3.49508986556356
| 82>   C          -0.42363262755196      5.33303671880760     -0.68355525331942
| 83>   H          -3.22477673570168      5.55019839071587     -3.35358818901430
| 84>   O          -1.57562021870700      5.58174871879137     -1.29776895845591
| 85>   H          -0.77857841334066      6.11581032437874     -3.12046395593711
| 86>   O           0.61068580997869      5.88267790322567     -0.94416445937285
| 87>   C          -1.52761169724276      6.48291819275387     -2.40125644900729
| 88>   C          -2.91039134265506      6.54449924438177     -3.00561955528070
| 89>   H          -2.91598591302815      7.23463999217503     -3.86183641425580
| 90>   H          -3.64395721141118      6.89813839481057     -2.26693020349302
| 91>   H          -1.18182873519966      7.46836164046737     -2.04869145702387
| 92>   O          -0.06287800268936      7.30517857219665     -5.41258519352432
| 93>   O          -0.59023898721439      8.33564737505013     -5.13771307817283
| 94> *
| 95> 
| 96>                          ****END OF INPUT****
================================================================================

                       ****************************
                       * Single Point Calculation *
                       ****************************

---------------------------------
CARTESIAN COORDINATES (ANGSTROEM)
---------------------------------
  C      3.350961   -1.819620    0.185183
  C      3.633325   -0.391990    0.222283
  C      3.279416    0.352055    1.345591
  C      2.719272   -2.431850    1.268784
  C      2.966732   -2.157485   -1.167371
  C      3.432028    0.145358   -1.107899
  C      2.714056    1.682269    1.181490
  C      2.621491   -0.282969    2.464745
  C      1.676148   -3.415114    1.027353
  C      2.345427   -1.656435    2.429757
  C      1.966993   -3.098633   -1.399287
  C      3.008762   -0.936094   -1.961214
  C      2.853276    1.413603   -1.261360
  C      1.678584    1.855517    2.168732
  C      2.502696    2.173653   -0.102189
  C      1.616930    0.639284    2.946844
  C      1.312505   -3.742871   -0.271122
  C      0.652859   -3.236197    2.044613
  C      1.066888   -2.137781    2.901253
  C      0.977741   -2.877388   -2.431506
  C      2.044112   -0.711591   -2.939649
  C      1.834693    1.657153   -2.254533
  C      0.537896    2.613301    1.882940
  C      1.350300    2.989789   -0.381675
  C      0.382316    0.188287    3.384412
  C     -0.088692   -3.914537   -0.613022
  C     -0.685594   -3.400650    1.717930
  C      0.107992   -1.243605    3.381244
  C     -0.288811   -3.377825   -1.949984
  C      1.018363   -1.696260   -3.191364
  C      1.452842    0.614794   -3.090091
  C      0.855011    2.620539   -1.722063
  C      0.576568    3.436228    0.677112
  C     -0.783658    2.114739    2.277665
  C     -0.822873    0.913141    3.042946
  C     -1.065297   -3.751038    0.359535
  C     -1.682952   -2.474502    2.230244
  C     -1.279678   -1.413604    3.041468
  C     -1.473454   -2.704974   -2.248780
  C     -0.207434   -0.987126   -3.486238
  C      0.065002    0.444883   -3.429589
  C     -0.500841    2.455487   -2.053309
  C     -1.537261    3.179395    0.163799
  C     -1.860079    2.319141    1.298258
  C     -1.848161   -0.084825    2.842536
  C     -2.299656   -3.048080    0.047310
  C     -2.682705   -2.275643    1.204877
  C     -2.492755   -2.538663   -1.239009
  C     -1.428512   -1.482895   -3.041000
  C     -0.882357    1.325239   -2.918139
  C     -1.620307    2.625476   -1.104243
  C     -2.793925    1.304470    1.078043
  C     -2.816672    0.092899    1.866611
  C     -3.252480   -1.004571    1.035696
  C     -3.081452   -1.218045   -1.412209
  C     -2.428527   -0.574813   -2.533747
  C     -2.151561    0.797522   -2.480821
  C     -2.552063    1.553733   -1.332992
  C     -3.201811    0.954831   -0.260175
  C     -3.456920   -0.476609   -0.294478
  H      0.504503    4.540236    4.740504
  C     -0.366398    5.210042    4.693944
  H     -0.472936    5.718498    5.664046
  H      0.693621    6.854357    3.741050
  C     -0.195537    6.228719    3.584106
  O      0.034365    5.575012    2.335162
  H     -1.263205    4.597636    4.522812
  C     -1.030214    5.122544    1.678195
  C     -0.607005    4.309815    0.444456
  O     -2.169233    5.349094    1.981068
  H     -1.079800    6.877312    3.495090
  C     -0.423633    5.333037   -0.683555
  H     -3.224777    5.550198   -3.353588
  O     -1.575620    5.581749   -1.297769
  H     -0.778578    6.115810   -3.120464
  O      0.610686    5.882678   -0.944164
  C     -1.527612    6.482918   -2.401256
  C     -2.910391    6.544499   -3.005620
  H     -2.915986    7.234640   -3.861836
  H     -3.643957    6.898138   -2.266930
  H     -1.181829    7.468362   -2.048691
  O     -0.062878    7.305179   -5.412585
  O     -0.590239    8.335647   -5.137713

----------------------------
CARTESIAN COORDINATES (A.U.)
----------------------------
  NO LB      ZA    FRAG     MASS         X           Y           Z
   0 C     6.0000    0    12.011    6.332399   -3.438584    0.349946
   1 C     6.0000    0    12.011    6.865989   -0.740754    0.420054
   2 C     6.0000    0    12.011    6.197199    0.665288    2.542799
   3 C     6.0000    0    12.011    5.138679   -4.595530    2.397654
   4 C     6.0000    0    12.011    5.606311   -4.077055   -2.206012
   5 C     6.0000    0    12.011    6.485593    0.274686   -2.093626
   6 C     6.0000    0    12.011    5.128822    3.179027    2.232693
   7 C     6.0000    0    12.011    4.953900   -0.534733    4.657694
   8 C     6.0000    0    12.011    3.167461   -6.453631    1.941417
   9 C     6.0000    0    12.011    4.432215   -3.130209    4.591575
  10 C     6.0000    0    12.011    3.717078   -5.855569   -2.644270
  11 C     6.0000    0    12.011    5.685736   -1.768962   -3.706156
  12 C     6.0000    0    12.011    5.391909    2.671323   -2.383624
  13 C     6.0000    0    12.011    3.172064    3.506419    4.098310
  14 C     6.0000    0    12.011    4.729410    4.107610   -0.193110
  15 C     6.0000    0    12.011    3.055554    1.208072    5.568728
  16 C     6.0000    0    12.011    2.480275   -7.073000   -0.512347
  17 C     6.0000    0    12.011    1.233725   -6.115527    3.863759
  18 C     6.0000    0    12.011    2.016127   -4.039820    5.482573
  19 C     6.0000    0    12.011    1.847663   -5.437475   -4.594880
  20 C     6.0000    0    12.011    3.862812   -1.344712   -5.555131
  21 C     6.0000    0    12.011    3.467066    3.131565   -4.260450
  22 C     6.0000    0    12.011    1.016477    4.938424    3.558240
  23 C     6.0000    0    12.011    2.551698    5.649882   -0.721261
  24 C     6.0000    0    12.011    0.722472    0.355810    6.395612
  25 C     6.0000    0    12.011   -0.167604   -7.397404   -1.158444
  26 C     6.0000    0    12.011   -1.295584   -6.426297    3.246417
  27 C     6.0000    0    12.011    0.204075   -2.350073    6.389625
  28 C     6.0000    0    12.011   -0.545774   -6.383164   -3.684936
  29 C     6.0000    0    12.011    1.924427   -3.205466   -6.030804
  30 C     6.0000    0    12.011    2.745473    1.161792   -5.839426
  31 C     6.0000    0    12.011    1.615737    4.952101   -3.254228
  32 C     6.0000    0    12.011    1.089556    6.493531    1.279556
  33 C     6.0000    0    12.011   -1.480899    3.996277    4.304163
  34 C     6.0000    0    12.011   -1.555004    1.725586    5.750335
  35 C     6.0000    0    12.011   -2.013120   -7.088435    0.679423
  36 C     6.0000    0    12.011   -3.180319   -4.676132    4.214551
  37 C     6.0000    0    12.011   -2.418242   -2.671324    5.747541
  38 C     6.0000    0    12.011   -2.784425   -5.111661   -4.249579
  39 C     6.0000    0    12.011   -0.391993   -1.865399   -6.588035
  40 C     6.0000    0    12.011    0.122836    0.840707   -6.480985
  41 C     6.0000    0    12.011   -0.946452    4.640198   -3.880192
  42 C     6.0000    0    12.011   -2.905003    6.008185    0.309536
  43 C     6.0000    0    12.011   -3.515040    4.382541    2.453352
  44 C     6.0000    0    12.011   -3.492518   -0.160296    5.371614
  45 C     6.0000    0    12.011   -4.345721   -5.760036    0.089403
  46 C     6.0000    0    12.011   -5.069577   -4.300343    2.276887
  47 C     6.0000    0    12.011   -4.710624   -4.797377   -2.341387
  48 C     6.0000    0    12.011   -2.699497   -2.802266   -5.746657
  49 C     6.0000    0    12.011   -1.667413    2.504338   -5.514484
  50 C     6.0000    0    12.011   -3.061936    4.961431   -2.086716
  51 C     6.0000    0    12.011   -5.279753    2.465092    2.037207
  52 C     6.0000    0    12.011   -5.322739    0.175554    3.527384
  53 C     6.0000    0    12.011   -6.146297   -1.898363    1.957181
  54 C     6.0000    0    12.011   -5.823099   -2.301771   -2.668687
  55 C     6.0000    0    12.011   -4.589252   -1.086240   -4.788088
  56 C     6.0000    0    12.011   -4.065862    1.507098   -4.688072
  57 C     6.0000    0    12.011   -4.822700    2.936129   -2.518989
  58 C     6.0000    0    12.011   -6.050545    1.804369   -0.491660
  59 C     6.0000    0    12.011   -6.532631   -0.900661   -0.556482
  60 H     1.0000    0     1.008    0.953372    8.579803    8.958254
  61 C     6.0000    0    12.011   -0.692393    9.845553    8.870268
  62 H     1.0000    0     1.008   -0.893719   10.806396   10.703497
  63 H     1.0000    0     1.008    1.310754   12.952858    7.069561
  64 C     6.0000    0    12.011   -0.369511   11.770574    6.772978
  65 O     8.0000    0    15.999    0.064941   10.535246    4.412817
  66 H     1.0000    0     1.008   -2.387112    8.688273    8.546875
  67 C     6.0000    0    12.011   -1.946823    9.680206    3.171328
  68 C     6.0000    0    12.011   -1.147074    8.144371    0.839901
  69 O     8.0000    0    15.999   -4.099257   10.108323    3.743676
  70 H     1.0000    0     1.008   -2.040527   12.996236    6.604763
  71 C     6.0000    0    12.011   -0.800550   10.077979   -1.291732
  72 H     1.0000    0     1.008   -6.093945   10.488355   -6.337363
  73 O     8.0000    0    15.999   -2.977491   10.547976   -2.452428
  74 H     1.0000    0     1.008   -1.471300   11.557207   -5.896822
  75 O     8.0000    0    15.999    1.154029   11.116650   -1.784212
  76 C     6.0000    0    12.011   -2.886768   12.250940   -4.537717
  77 C     6.0000    0    12.011   -5.499843   12.367311   -5.679798
  78 H     1.0000    0     1.008   -5.510415   13.671488   -7.297813
  79 H     1.0000    0     1.008   -6.886081   13.035592   -4.283877
  80 H     1.0000    0     1.008   -2.233333   14.113158   -3.871466
  81 O     8.0000    0    15.999   -0.118822   13.804787  -10.228304
  82 O     8.0000    0    15.999   -1.115390   15.752091   -9.708871

--------------------------------
INTERNAL COORDINATES (ANGSTROEM)
--------------------------------
 C      0   0   0     0.000000000000     0.00000000     0.00000000
 C      1   0   0     1.455758997639     0.00000000     0.00000000
 C      2   1   0     1.393081799718   119.67329907     0.00000000
 C      1   2   3     1.395724493828   119.87905082     0.48938019
 C      1   2   3     1.446093940972   107.72791374   142.97475953
 C      2   1   3     1.448670764719   108.26458439   216.63009951
 C      3   2   1     1.454657674713   119.74761937   220.58601459
 C      3   2   1     1.445208158947   120.35776961   359.30638508
 C      4   1   2     1.453686630071   119.50644738   138.06677942
 C      8   3   2     1.401372809945   120.06594437     0.52404076
 C      5   1   2     1.392488760424   120.29462331   217.47393589
 C      6   2   1     1.441123736283   107.82725892     0.82204827
 C      6   2   1     1.402480368265   119.55337166   141.82569788
 C      7   3   2     1.441132590713   108.17411285   141.36509361
 C      7   3   2     1.390670690677   119.09877385     1.75197120
 C     14   7   3     1.445158353341   107.35714810     0.57003239
 C      9   4   1     1.387695793058   120.21177051     0.05406905
 C      9   4   1     1.453942734409   107.79389974   217.52146342
 C     10   8   3     1.445221222637   119.50880442   222.53898103
 C     11   5   1     1.446735235337   120.42376045   138.52318566
 C     12   6   2     1.392223303990   119.90914242   141.82880959
 C     13   6   2     1.443336903808   121.27229943   223.82196484
 C     14   7   3     1.398957695146   120.73278440   214.14592590
 C     15   7   3     1.439515655095   120.08034389   143.49221995
 C     16  14   7     1.385328549525   118.82071685   216.32057297
 C     17   9   4     1.452487135221   120.06383702   221.61196284
 C     18   9   4     1.387523844966   119.97339772   143.00711664
 C     19  10   8     1.396217722209   120.42620924     0.38903071
 C     20  11   5     1.444456257386   107.98321508   217.36989431
 C     20  11   5     1.405026547595   119.64661012   359.16767397
 C     22  13   6     1.389417195877   118.76175266   358.40407694
 C     22  13   6     1.473571413947   109.32074834   144.21019396
 C     24  15   7     1.385279456806   118.78051067     9.48581719
 C     23  14   7     1.466587483187   119.71090752   136.07250673
 C     34  23  14     1.425142209001   117.12584286     5.09202741
 C     26  17   9     1.387932499251   119.99523676     0.00000000
 C     27  18   9     1.454283126048   120.20741484   222.02140813
 C     37  27  18     1.395069977232   119.39944069     0.60863388
 C     29  20  11     1.394770888777   120.41048361   142.53758202
 C     30  20  11     1.446512178703   119.85855334   222.73684668
 C     31  22  13     1.438828640622   119.70784862   140.16569330
 C     32  22  13     1.405453813876   118.64813849   216.63610862
 C     33  24  15     2.190371448986   108.79093276   224.03673073
 C     43  33  24     1.459878156013    95.76123461   121.71841783
 C     35  34  23     1.444754877900   121.83266360   217.92191888
 C     36  26  17     1.454399282834   120.24459516   138.49790606
 C     46  36  26     1.443379256393   108.16322537   217.09488251
 C     46  36  26     1.396928574114   119.42290459   359.95863604
 C     40  30  20     1.391063239855   120.25823678   358.83805694
 C     41  31  22     1.390718035321   119.70492349     0.00000000
 C     43  33  24     1.386236919823   108.60459527     0.11436506
 C     44  43  33     1.396466431455   116.96766850   215.49362643
 C     45  35  34     1.386372238754   120.32230913     1.37904424
 C     47  46  36     1.403172286774   119.72536203   142.40276731
 C     48  46  36     1.456225629407   119.74307504   221.86127963
 C     49  40  30     1.442896008639   119.77501505   139.95415340
 C     56  49  40     1.401005012667   119.52062889   359.25638567
 C     57  56  49     1.431701109542   119.49626566   221.69626382
 C     58  57  56     1.389888678546   121.46677977     0.55228827
 C     55  48  46     1.392847809200   119.75399166   359.52060414
 H     23  14   7     3.446718313749    98.12668208   227.95498103
 C     61  23  14     1.099671121934   108.24578088   180.85770508
 H     62  61  23     1.100444137122   108.70998839   171.51482620
 H     62  61  23     2.176101618399    95.33664546   268.45097755
 C     64  62  61     1.098479154999    40.35056771   125.14248655
 O     65  64  62     1.428302534011   104.79226594   240.31154444
 H     62  61  23     1.099358666240   108.26050945    53.95541921
 C     66  65  64     1.330286829145   117.30303795   202.29158167
 C     33  24  15     1.489338411248   120.89767631   178.53333417
 O     68  66  65     1.200175532462   124.79578449     8.55911933
 H     65  64  62     1.100234925762   109.04812785   123.53371250
 C     69  33  24     1.533954965630   114.27630505   323.03233570
 H     72  69  33     3.875905492148   117.22947292   130.52597978
 O     72  69  33     1.328981393658   111.16616490   148.18773358
 H     74  72  69     2.059785059638    97.01186025   206.84032768
 O     72  69  33     1.199932173127   124.63191118   325.21938267
 C     75  74  72     1.101398422661    41.01227189   227.23943001
 C     73  72  69     1.099342773217    68.03446895   134.29500797
 H     78  73  72     1.099742179138   108.64462376   142.24420170
 H     78  73  72     1.099473278877   108.22612158   259.90700805
 H     77  75  74     1.102255287605   107.06825235   117.70224758
 O     75  74  72     2.679672307302   167.25128239   234.29974833
 O     82  75  77     1.189760581567    93.92323689    13.54288227

---------------------------
INTERNAL COORDINATES (A.U.)
---------------------------
 C      0   0   0     0.000000000000     0.00000000     0.00000000
 C      1   0   0     2.750985822530     0.00000000     0.00000000
 C      2   1   0     2.632543083617   119.67329907     0.00000000
 C      1   2   3     2.637537051741   119.87905082     0.48938019
 C      1   2   3     2.732721512359   107.72791374   142.97475953
 C      2   1   3     2.737591003537   108.26458439   216.63009951
 C      3   2   1     2.748904623814   119.74761937   220.58601459
 C      3   2   1     2.731047626918   120.35776961   359.30638508
 C      4   1   2     2.747069615376   119.50644738   138.06677942
 C      8   3   2     2.648210822319   120.06594437     0.52404076
 C      5   1   2     2.631422401766   120.29462331   217.47393589
 C      6   2   1     2.723329186667   107.82725892     0.82204827
 C      6   2   1     2.650303804222   119.55337166   141.82569788
 C      7   3   2     2.723345919117   108.17411285   141.36509361
 C      7   3   2     2.627986747851   119.09877385     1.75197120
 C     14   7   3     2.730953507964   107.35714810     0.57003239
 C      9   4   1     2.622365006075   120.21177051     0.05406905
 C      9   4   1     2.747553582438   107.79389974   217.52146342
 C     10   8   3     2.731072313715   119.50880442   222.53898103
 C     11   5   1     2.733933383080   120.42376045   138.52318566
 C     12   6   2     2.630920761804   119.90914242   141.82880959
 C     13   6   2     2.727511467178   121.27229943   223.82196484
 C     14   7   3     2.643646916767   120.73278440   214.14592590
 C     15   7   3     2.720290353623   120.08034389   143.49221995
 C     16  14   7     2.617891564104   118.82071685   216.32057297
 C     17   9   4     2.744802898611   120.06383702   221.61196284
 C     18   9   4     2.622040071272   119.97339772   143.00711664
 C     19  10   8     2.638469118301   120.42620924     0.38903071
 C     20  11   5     2.729626738888   107.98321508   217.36989431
 C     20  11   5     2.655115385844   119.64661012   359.16767397
 C     22  13   6     2.625617985969   118.76175266   358.40407694
 C     22  13   6     2.784646411135   109.32074834   144.21019396
 C     24  15   7     2.617798792310   118.78051067     9.48581719
 C     23  14   7     2.771448694661   119.71090752   136.07250673
 C     34  23  14     2.693128476904   117.12584286     5.09202741
 C     26  17   9     2.622812315954   119.99523676     0.00000000
 C     27  18   9     2.748196829413   120.20741484   222.02140813
 C     37  27  18     2.636300194624   119.39944069     0.60863388
 C     29  20  11     2.635734999355   120.41048361   142.53758202
 C     30  20  11     2.733511867130   119.85855334   222.73684668
 C     31  22  13     2.718992084418   119.70784862   140.16569330
 C     32  22  13     2.655922802102   118.64813849   216.63610862
 C     33  24  15     4.139202170144   108.79093276   224.03673073
 C     43  33  24     2.758769903759    95.76123461   121.71841783
 C     35  34  23     2.730191049879   121.83266360   217.92191888
 C     36  26  17     2.748416333927   120.24459516   138.49790606
 C     46  36  26     2.727591501966   108.16322537   217.09488251
 C     46  36  26     2.639812433725   119.42290459   359.95863604
 C     40  30  20     2.628728558291   120.25823678   358.83805694
 C     41  31  22     2.628076216261   119.70492349     0.00000000
 C     43  33  24     2.619608135197   108.60459527     0.11436506
 C     44  43  33     2.638939110664   116.96766850   215.49362643
 C     45  35  34     2.619863850916   120.32230913     1.37904424
 C     47  46  36     2.651611340711   119.72536203   142.40276731
 C     48  46  36     2.751867628777   119.74307504   221.86127963
 C     49  40  30     2.726678296057   119.77501505   139.95415340
 C     56  49  40     2.647515786191   119.52062889   359.25638567
 C     57  56  49     2.705523002666   119.49626566   221.69626382
 C     58  57  56     2.626508959090   121.46677977     0.55228827
 C     55  48  46     2.632100905620   119.75399166   359.52060414
 H     23  14   7     6.513353673756    98.12668208   227.95498103
 C     61  23  14     2.078077257838   108.24578088   180.85770508
 H     62  61  23     2.079538044840   108.70998839   171.51482620
 H     62  61  23     4.112236098357    95.33664546   268.45097755
 C     64  62  61     2.075824766770    40.35056771   125.14248655
 O     65  64  62     2.699100625667   104.79226594   240.31154444
 H     62  61  23     2.077486802146   108.26050945    53.95541921
 C     66  65  64     2.513877786646   117.30303795   202.29158167
 C     33  24  15     2.814441717988   120.89767631   178.53333417
 O     68  66  65     2.268003068986   124.79578449     8.55911933
 H     65  64  62     2.079142692666   109.04812785   123.53371250
 C     69  33  24     2.898754786809   114.27630505   323.03233570
 H     72  69  33     7.324399901121   117.22947292   130.52597978
 O     72  69  33     2.511410871090   111.16616490   148.18773358
 H     74  72  69     3.892429657458    97.01186025   206.84032768
 O     72  69  33     2.267543186490   124.63191118   325.21938267
 C     75  74  72     2.081341383162    41.01227189   227.23943001
 C     73  72  69     2.077456768685    68.03446895   134.29500797
 H     78  73  72     2.078211536493   108.64462376   142.24420170
 H     78  73  72     2.077703388642   108.22612158   259.90700805
 H     77  75  74     2.082960623240   107.06825235   117.70224758
 O     75  74  72     5.063846789454   167.25128239   234.29974833
 O     82  75  77     2.248321664097    93.92323689    13.54288227

---------------------
BASIS SET INFORMATION
---------------------
There are 3 groups of distinct atoms

 Group   1 Type C   : 11s6p2d1f contracted to 5s3p2d1f pattern {62111/411/11/1}
 Group   2 Type H   : 5s2p1d contracted to 3s2p1d pattern {311/11/1}
 Group   3 Type O   : 11s6p2d1f contracted to 5s3p2d1f pattern {62111/411/11/1}

Atom   0C    basis set group =>   1
Atom   1C    basis set group =>   1
Atom   2C    basis set group =>   1
Atom   3C    basis set group =>   1
Atom   4C    basis set group =>   1
Atom   5C    basis set group =>   1
Atom   6C    basis set group =>   1
Atom   7C    basis set group =>   1
Atom   8C    basis set group =>   1
Atom   9C    basis set group =>   1
Atom  10C    basis set group =>   1
Atom  11C    basis set group =>   1
Atom  12C    basis set group =>   1
Atom  13C    basis set group =>   1
Atom  14C    basis set group =>   1
Atom  15C    basis set group =>   1
Atom  16C    basis set group =>   1
Atom  17C    basis set group =>   1
Atom  18C    basis set group =>   1
Atom  19C    basis set group =>   1
Atom  20C    basis set group =>   1
Atom  21C    basis set group =>   1
Atom  22C    basis set group =>   1
Atom  23C    basis set group =>   1
Atom  24C    basis set group =>   1
Atom  25C    basis set group =>   1
Atom  26C    basis set group =>   1
Atom  27C    basis set group =>   1
Atom  28C    basis set group =>   1
Atom  29C    basis set group =>   1
Atom  30C    basis set group =>   1
Atom  31C    basis set group =>   1
Atom  32C    basis set group =>   1
Atom  33C    basis set group =>   1
Atom  34C    basis set group =>   1
Atom  35C    basis set group =>   1
Atom  36C    basis set group =>   1
Atom  37C    basis set group =>   1
Atom  38C    basis set group =>   1
Atom  39C    basis set group =>   1
Atom  40C    basis set group =>   1
Atom  41C    basis set group =>   1
Atom  42C    basis set group =>   1
Atom  43C    basis set group =>   1
Atom  44C    basis set group =>   1
Atom  45C    basis set group =>   1
Atom  46C    basis set group =>   1
Atom  47C    basis set group =>   1
Atom  48C    basis set group =>   1
Atom  49C    basis set group =>   1
Atom  50C    basis set group =>   1
Atom  51C    basis set group =>   1
Atom  52C    basis set group =>   1
Atom  53C    basis set group =>   1
Atom  54C    basis set group =>   1
Atom  55C    basis set group =>   1
Atom  56C    basis set group =>   1
Atom  57C    basis set group =>   1
Atom  58C    basis set group =>   1
Atom  59C    basis set group =>   1
Atom  60H    basis set group =>   2
Atom  61C    basis set group =>   1
Atom  62H    basis set group =>   2
Atom  63H    basis set group =>   2
Atom  64C    basis set group =>   1
Atom  65O    basis set group =>   3
Atom  66H    basis set group =>   2
Atom  67C    basis set group =>   1
Atom  68C    basis set group =>   1
Atom  69O    basis set group =>   3
Atom  70H    basis set group =>   2
Atom  71C    basis set group =>   1
Atom  72H    basis set group =>   2
Atom  73O    basis set group =>   3
Atom  74H    basis set group =>   2
Atom  75O    basis set group =>   3
Atom  76C    basis set group =>   1
Atom  77C    basis set group =>   1
Atom  78H    basis set group =>   2
Atom  79H    basis set group =>   2
Atom  80H    basis set group =>   2
Atom  81O    basis set group =>   3
Atom  82O    basis set group =>   3
---------------------------------
AUXILIARY/J BASIS SET INFORMATION
---------------------------------
There are 3 groups of distinct atoms

 Group   1 Type C   : 12s5p4d2f1g contracted to 6s4p3d1f1g pattern {711111/2111/211/2/1}
 Group   2 Type H   : 5s2p1d contracted to 3s1p1d pattern {311/2/1}
 Group   3 Type O   : 12s5p4d2f1g contracted to 6s4p3d1f1g pattern {711111/2111/211/2/1}

Atom   0C    basis set group =>   1
Atom   1C    basis set group =>   1
Atom   2C    basis set group =>   1
Atom   3C    basis set group =>   1
Atom   4C    basis set group =>   1
Atom   5C    basis set group =>   1
Atom   6C    basis set group =>   1
Atom   7C    basis set group =>   1
Atom   8C    basis set group =>   1
Atom   9C    basis set group =>   1
Atom  10C    basis set group =>   1
Atom  11C    basis set group =>   1
Atom  12C    basis set group =>   1
Atom  13C    basis set group =>   1
Atom  14C    basis set group =>   1
Atom  15C    basis set group =>   1
Atom  16C    basis set group =>   1
Atom  17C    basis set group =>   1
Atom  18C    basis set group =>   1
Atom  19C    basis set group =>   1
Atom  20C    basis set group =>   1
Atom  21C    basis set group =>   1
Atom  22C    basis set group =>   1
Atom  23C    basis set group =>   1
Atom  24C    basis set group =>   1
Atom  25C    basis set group =>   1
Atom  26C    basis set group =>   1
Atom  27C    basis set group =>   1
Atom  28C    basis set group =>   1
Atom  29C    basis set group =>   1
Atom  30C    basis set group =>   1
Atom  31C    basis set group =>   1
Atom  32C    basis set group =>   1
Atom  33C    basis set group =>   1
Atom  34C    basis set group =>   1
Atom  35C    basis set group =>   1
Atom  36C    basis set group =>   1
Atom  37C    basis set group =>   1
Atom  38C    basis set group =>   1
Atom  39C    basis set group =>   1
Atom  40C    basis set group =>   1
Atom  41C    basis set group =>   1
Atom  42C    basis set group =>   1
Atom  43C    basis set group =>   1
Atom  44C    basis set group =>   1
Atom  45C    basis set group =>   1
Atom  46C    basis set group =>   1
Atom  47C    basis set group =>   1
Atom  48C    basis set group =>   1
Atom  49C    basis set group =>   1
Atom  50C    basis set group =>   1
Atom  51C    basis set group =>   1
Atom  52C    basis set group =>   1
Atom  53C    basis set group =>   1
Atom  54C    basis set group =>   1
Atom  55C    basis set group =>   1
Atom  56C    basis set group =>   1
Atom  57C    basis set group =>   1
Atom  58C    basis set group =>   1
Atom  59C    basis set group =>   1
Atom  60H    basis set group =>   2
Atom  61C    basis set group =>   1
Atom  62H    basis set group =>   2
Atom  63H    basis set group =>   2
Atom  64C    basis set group =>   1
Atom  65O    basis set group =>   3
Atom  66H    basis set group =>   2
Atom  67C    basis set group =>   1
Atom  68C    basis set group =>   1
Atom  69O    basis set group =>   3
Atom  70H    basis set group =>   2
Atom  71C    basis set group =>   1
Atom  72H    basis set group =>   2
Atom  73O    basis set group =>   3
Atom  74H    basis set group =>   2
Atom  75O    basis set group =>   3
Atom  76C    basis set group =>   1
Atom  77C    basis set group =>   1
Atom  78H    basis set group =>   2
Atom  79H    basis set group =>   2
Atom  80H    basis set group =>   2
Atom  81O    basis set group =>   3
Atom  82O    basis set group =>   3


           ************************************************************
           *        Program running with 28 parallel MPI-processes    *
           *              working on a common directory               *
           ************************************************************
------------------------------------------------------------------------------
                             ORCA STARTUP CALCULATIONS
                           -- RI-GTO INTEGRALS CHOSEN --
------------------------------------------------------------------------------
------------------------------------------------------------------------------
                   ___                                                        
                  /   \      - P O W E R E D   B Y -                         
                 /     \                                                     
                 |  |  |   _    _      __       _____    __    __             
                 |  |  |  | |  | |    /  \     |  _  \  |  |  /  |          
                  \  \/   | |  | |   /    \    | | | |  |  | /  /          
                 / \  \   | |__| |  /  /\  \   | |_| |  |  |/  /          
                |  |  |   |  __  | /  /__\  \  |    /   |      \           
                |  |  |   | |  | | |   __   |  |    \   |  |\   \          
                \     /   | |  | | |  |  |  |  | |\  \  |  | \   \       
                 \___/    |_|  |_| |__|  |__|  |_| \__\ |__|  \__/        
                                                                              
                      - O R C A' S   B I G   F R I E N D -                    
                                      &                                       
                       - I N T E G R A L  F E E D E R -                       
                                                                              
 v1 FN, 2020, v2 2021, v3 2022-2024                                           
------------------------------------------------------------------------------


----------------------
SHARK INTEGRAL PACKAGE
----------------------

Number of atoms                             ...     83
Number of basis functions                   ...   2403
Number of shells                            ...    863
Maximum angular momentum                    ...      3
Integral batch strategy                     ... SHARK/LIBINT Hybrid
RI-J (if used) integral strategy            ... SPLIT-RIJ (Revised 2003 algorithm where possible)
Printlevel                                  ...      1
Contraction scheme used                     ... SEGMENTED contraction
Prescreening option                         ... SCHWARTZ
   Thresh                                   ... 2.500e-11
   Tcut                                     ... 2.500e-12
   Tpresel                                  ... 2.500e-12 
Coulomb Range Separation                    ... NOT USED
Exchange Range Separation                   ... Long Range
   Mu parameter                             ... 2.500e-01
   Scaling (regular/separated)              ... 1.957e-01 8.043e-01
Multipole approximations                    ... NOT USED
Finite Nucleus Model                        ... NOT USED
CABS basis                                  ... NOT available
Auxiliary Coulomb fitting basis             ... AVAILABLE
   # of basis functions in Aux-J            ...   3687
   # of shells in Aux-J                     ...   1145
   Maximum angular momentum in Aux-J        ...      4
Auxiliary J/K fitting basis                 ... NOT available
Auxiliary Correlation fitting basis         ... NOT available
Auxiliary 'external' fitting basis          ... NOT available

Checking pre-screening integrals            ... done (  0.0 sec) Dimension = 863
Check shell pair data                       ... done (  0.0 sec)
Shell pair information
Shell pair cut-off parameter TPreSel        ...   2.5e-12
Total number of shell pairs                 ...    372816
Shell pairs after pre-screening             ...    215108
Total number of primitive shell pairs       ...   1188206
Primitive shell pairs kept                  ...    411139
          la=0 lb=0:  41958 shell pairs
          la=1 lb=0:  59625 shell pairs
          la=1 lb=1:  20797 shell pairs
          la=2 lb=0:  31595 shell pairs
          la=2 lb=1:  23811 shell pairs
          la=2 lb=2:   6353 shell pairs
          la=3 lb=0:  13704 shell pairs
          la=3 lb=1:  10710 shell pairs
          la=3 lb=2:   5461 shell pairs
          la=3 lb=3:   1094 shell pairs

Calculating one electron integrals          ... done (  0.4 sec)
Calculating RI/J V-Matrix + Cholesky decomp.... done (  0.6 sec)
Calculating Nuclear repulsion               ... done (  0.0 sec) ENN=  11812.615845437555 Eh

Diagonalization of the overlap matrix:
Smallest eigenvalue                        ... 1.175e-06
Time for diagonalization                   ...    0.476 sec
Threshold for overlap eigenvalues          ... 1.000e-07
Number of eigenvalues below threshold      ... 0
Time for construction of square roots      ...    0.480 sec
Total time needed                          ...    1.028 sec

-------------------
DFT GRID GENERATION
-------------------

General Integration Accuracy     IntAcc      ... 4.388
Radial Grid Type                 RadialGrid  ... OptM3 with GC (2021)
Angular Grid (max. ang.)         AngularGrid ... 4 (Lebedev-302)
Angular grid pruning method      GridPruning ... 4 (adaptive)
Weight generation scheme         WeightScheme... mBecke (2022)
Basis function cutoff            BFCut       ... 1.0000e-11
Integration weight cutoff        WCut        ... 1.0000e-14
Partially contracted basis set               ... off
Rotationally invariant grid construction     ... off
Angular grids for H and He will be reduced by one unit

Total number of grid points                  ...   457577
Total number of batches                      ...     7182
Average number of points per batch           ...       63
Average number of grid points per atom       ...     5513

--------------------
COSX GRID GENERATION
--------------------

GRIDX 1
-------
General Integration Accuracy     IntAcc      ... 3.816
Radial Grid Type                 RadialGrid  ... OptM3 with GC (2021)
Angular Grid (max. ang.)         AngularGrid ... 1 (Lebedev-50)
Angular grid pruning method      GridPruning ... 4 (adaptive)
Weight generation scheme         WeightScheme... mBecke (2022)
Basis function cutoff            BFCut       ... 1.0000e-11
Integration weight cutoff        WCut        ... 1.0000e-14
Partially contracted basis set               ... on
Rotationally invariant grid construction     ... off
Angular grids for H and He will be reduced by one unit

Total number of grid points                  ...    57456
Total number of batches                      ...      484
Average number of points per batch           ...      118
Average number of grid points per atom       ...      692
UseSFitting                                  ... on

GRIDX 2
-------
General Integration Accuracy     IntAcc      ... 4.020
Radial Grid Type                 RadialGrid  ... OptM3 with GC (2021)
Angular Grid (max. ang.)         AngularGrid ... 2 (Lebedev-110)
Angular grid pruning method      GridPruning ... 4 (adaptive)
Weight generation scheme         WeightScheme... mBecke (2022)
Basis function cutoff            BFCut       ... 1.0000e-11
Integration weight cutoff        WCut        ... 1.0000e-14
Partially contracted basis set               ... on
Rotationally invariant grid construction     ... off
Angular grids for H and He will be reduced by one unit

Total number of grid points                  ...   129534
Total number of batches                      ...     1063
Average number of points per batch           ...      121
Average number of grid points per atom       ...     1561
UseSFitting                                  ... on

GRIDX 3
-------
General Integration Accuracy     IntAcc      ... 4.338
Radial Grid Type                 RadialGrid  ... OptM3 with GC (2021)
Angular Grid (max. ang.)         AngularGrid ... 3 (Lebedev-194)
Angular grid pruning method      GridPruning ... 4 (adaptive)
Weight generation scheme         WeightScheme... mBecke (2022)
Basis function cutoff            BFCut       ... 1.0000e-11
Integration weight cutoff        WCut        ... 1.0000e-14
Partially contracted basis set               ... on
Rotationally invariant grid construction     ... off
Angular grids for H and He will be reduced by one unit

Total number of grid points                  ...   283569
Total number of batches                      ...     2248
Average number of points per batch           ...      126
Average number of grid points per atom       ...     3416
UseSFitting                                  ... on
Initializing property integral containers    ... done (  0.0 sec)

SHARK setup successfully completed in  14.6 seconds

Maximum memory used throughout the entire STARTUP-calculation: 448.7 MB


           ************************************************************
           *        Program running with 28 parallel MPI-processes    *
           *              working on a common directory               *
           ************************************************************
-------------------------------------------------------------------------------
                                 ORCA GUESS
                   Start orbitals & Density for SCF / CASSCF
-------------------------------------------------------------------------------

------------
SCF SETTINGS
------------
Hamiltonian:
 Density Functional     Method          .... DFT(GTOs)
 Exchange Functional    Exchange        .... WB97X-D3
 Correlation Functional Correlation     .... WB97X-D3
 Gradients option       PostSCFGGA      .... off
 Hybrid DFT is turned on
   Fraction HF Exchange ScalHFX         ....  0.195728
   Scaling of DF-GGA-X  ScalDFX         ....  0.000000
   Scaling of DF-GGA-C  ScalDFC         ....  1.000000
   Scaling of DF-LDA-C  ScalLDAC        ....  1.000000
   Perturbative correction              ....  0.000000
 Long-range corrected/Screened/Range-Separated Hybrid DFT is turned on
   Amount of maximum screened exact exchange              ....  0.804272
   Range separation parameter mu (erf(mu*r12)/r12)        ....  0.250000
 RI-approximation to the Coulomb term is turned on
   Number of AuxJ basis functions       .... 3687
   RIJ-COSX (HFX calculated with COS-X)).... on


General Settings:
 Integral files         IntName         .... c60_o2_SP_17
 Hartree-Fock type      HFTyp           .... UHF
 Total Charge           Charge          ....   -1
 Multiplicity           Mult            ....    2
 Number of Electrons    NEL             ....  461
 Basis Dimension        Dim             .... 2403
 Nuclear Repulsion      ENuc            ....  11812.6158454376 Eh

Convergence Acceleration:
 AO-DIIS                CNVDIIS         .... on
   Start iteration      DIISMaxIt       ....    12
   Startup error        DIISStart       ....  0.200000
   # of expansion vecs  DIISMaxEq       ....     5
   Bias factor          DIISBfac        ....   1.050
   Max. coefficient     DIISMaxC        ....  10.000
 MO-DIIS                CNVKDIIS        .... off
 Trust-Rad. Augm. Hess. CNVTRAH         .... auto
   Auto Start mean grad. ratio tolernc. ....  1.125000
   Auto Start start iteration           ....    50
   Auto Start num. interpolation iter.  ....    10
   Max. Number of Micro iterations      ....    24
   Max. Number of Macro iterations      .... Maxiter - #DIIS iter
   Number of Davidson start vectors     ....     2
   Converg. threshold    (grad. norm)   ....   1.000e-05
   Grad. Scal. Fac. for Micro threshold ....   0.100
   Minimum threshold for Micro iter.    ....   1.000e-02
   NR start threshold (gradient norm)   ....   1.000e-04
   Initial trust radius                 ....   0.400
   Minimum AH scaling param. (alpha)    ....   1.000
   Maximum AH scaling param. (alpha)    .... 1000.000
   Quad. conv. algorithm                .... NR
   White noise on init. David. guess    .... on
   Maximum white noise                  ....   0.010
   Pseudo random numbers                .... off
   Inactive MOs                         .... canonical
   Orbital update algorithm             .... Taylor
   Preconditioner                       .... Diag
   Full preconditioner red. dimension   ....   250
 SOSCF                  CNVSOSCF        .... on
   Start iteration      SOSCFMaxIt      ....   150
   Startup grad/error   SOSCFStart      ....  0.003300
   Hessian update       SOSCFHessUp     .... L-BFGS
 Level Shifting         CNVShift        .... on
   Level shift para.    LevelShift      ....    0.2500
   Turn off err/grad.   ShiftErr        ....    0.0010
 Zerner damping         CNVZerner       .... off
 Static damping         CNVDamp         .... on
   Fraction old density DampFac         ....    0.7000
   Max. Damping (<1)    DampMax         ....    0.9800
   Min. Damping (>=0)   DampMin         ....    0.0000
   Turn off err/grad.   DampErr         ....    0.1000

SCF Procedure:
 Maximum # iterations   MaxIter         ....   125
 SCF integral mode      SCFMode         .... Direct
   Integral package                     .... SHARK and LIBINT hybrid scheme
 Reset frequency        DirectResetFreq ....    20
 Integral Threshold     Thresh          ....  2.500e-11 Eh
 Primitive CutOff       TCut            ....  2.500e-12 Eh

Convergence Tolerance:
 Convergence Check Mode ConvCheckMode   .... Total+1el-Energy
 Convergence forced     ConvForced      .... 0
 Energy Change          TolE            ....  1.000e-08 Eh
 1-El. energy change                    ....  1.000e-05 Eh
 Orbital Gradient       TolG            ....  1.000e-05
 Orbital Rotation angle TolX            ....  1.000e-05
 DIIS Error             TolErr          ....  5.000e-07

------------------------------
INITIAL GUESS: MODEL POTENTIAL
------------------------------
Loading Hartree-Fock densities                     ... done
Calculating cut-offs                               ... done
Initializing the effective Hamiltonian             ... done
Setting up the integral package (SHARK)            ... done
Starting the Coulomb interaction                   ... done (   2.0 sec)
Making the grid                                    ... done (   0.8 sec)
Mapping shells                                     ... done
Starting the XC term evaluation                    ... done (   1.1 sec)
  promolecular density results
     # of electrons  =    460.005951821
     EX              =   -395.297702965
     EC              =    -16.073597660
     EX+EC           =   -411.371300625
Transforming the Hamiltonian                       ... done (   0.4 sec)
Diagonalizing the Hamiltonian                      ... done (   0.6 sec)
Back transforming the eigenvectors                 ... done (   0.5 sec)
Now organizing SCF variables                       ... done
                      ------------------
                      INITIAL GUESS DONE (   6.6 sec)
                      ------------------
             **** ENERGY FILE WAS UPDATED (c60_o2_SP_17.en.tmp) ****
Finished Guess after   9.3 sec
Maximum memory used throughout the entire GUESS-calculation: 410.1 MB


           ************************************************************
           *        Program running with 28 parallel MPI-processes    *
           *              working on a common directory               *
           ************************************************************

-------------------------------------------------------------------------------------------
                                      ORCA LEAN-SCF
                              memory conserving SCF solver
-------------------------------------------------------------------------------------------

----------------------------------------D-I-I-S--------------------------------------------
Iteration    Energy (Eh)           Delta-E    RMSDP     MaxDP     DIISErr   Damp  Time(sec)
-------------------------------------------------------------------------------------------
               ***  Starting incremental Fock matrix formation  ***
    1    -3007.6332526772694109     0.00e+00  1.97e-03  5.33e-01  1.32e-01  0.700  99.4
Warning: op=0 Small HOMO/LUMO gap (  -0.809) - skipping pre-diagonalization
         LevelShift set to 0.909 Eh
         Will do a full diagonalization
    2    -3008.5507908540912467    -9.18e-01  4.58e-03  1.27e+00  8.55e-02  0.700  52.4
                               ***Turning on AO-DIIS***
    3    -3007.6371242402456119     9.14e-01  4.83e-03  1.39e+00  1.58e-01  0.700  47.6
    4    -3007.5984776235036406     3.86e-02  4.40e-03  1.72e+00  1.41e-01  0.700  47.0
    5    -3007.6547320861336630    -5.63e-02  3.76e-03  1.58e+00  1.26e-01  0.700  46.4
    6    -3007.8020938266181474    -1.47e-01  2.78e-03  6.18e-01  1.16e-01  0.700  46.5
    7    -3008.0984357465422363    -2.96e-01  3.21e-03  9.54e-01  1.02e-01  0.700  46.6
    8    -3008.7723038393360184    -6.74e-01  3.22e-03  1.18e+00  3.50e-02  0.700  47.1
    9    -3009.2865334557154711    -5.14e-01  9.08e-03  3.58e+00  2.68e-02  0.000  46.0
   10    -3009.7794107420231740    -4.93e-01  1.09e-03  4.33e-01  1.52e-01  0.000  48.9
   11    -3009.6324542235906847     1.47e-01  1.71e-04  6.61e-02  1.56e-01  0.700  46.3
   12    -3009.5674054124483519     6.50e-02  2.24e-04  8.34e-02  1.60e-01  0.700  41.6
   13    -3009.4634431012091227     1.04e-01  2.29e-04  8.50e-02  1.64e-01  0.700  42.8
   14    -3009.3599428511479346     1.04e-01  2.07e-04  8.85e-02  1.65e-01  0.700  42.8
   15    -3009.4342235682888713    -7.43e-02  2.94e-04  1.05e-01  1.49e-01  0.700  43.2
   16    -3009.6934333545432310    -2.59e-01  3.34e-04  9.19e-02  1.06e-01  0.700  44.9
   17    -3009.9305867681705422    -2.37e-01  2.79e-04  6.89e-02  5.67e-02  0.700  45.4
   18    -3010.0752730958029133    -1.45e-01  7.05e-04  1.72e-01  2.60e-02  0.000  44.5
   19    -3010.2669636473401624    -1.92e-01  8.95e-05  1.70e-02  3.50e-02  0.000  47.5
   20    -3010.2811263199400855    -1.42e-02  9.11e-05  1.52e-02  1.85e-02  0.000  40.8
               *** Restarting incremental Fock matrix formation ***
                             ****Resetting DIIS****
Warning: op=0 Small HOMO/LUMO gap (   0.050) - skipping pre-diagonalization
         Will do a full diagonalization
   21    -3010.2891138980376127    -7.99e-03  3.73e-03  5.57e-01  9.92e-03  0.000  57.0
   22    -3010.3061020904642646    -1.70e-02  1.12e-04  1.78e-02  1.86e-02  0.000  47.7
   23    -3010.3121501876030379    -6.05e-03  1.35e-04  2.17e-02  8.14e-03  0.000  39.8
   24    -3010.3189838720008993    -6.83e-03  9.49e-05  1.20e-02  1.25e-02  0.000  42.0
   25    -3010.3248838076287939    -5.90e-03  1.19e-04  1.39e-02  1.13e-02  0.000  41.3
   26    -3010.3314497768460569    -6.57e-03  2.16e-04  3.37e-02  6.55e-03  0.000  42.0
                              *** Initializing SOSCF ***
---------------------------------------S-O-S-C-F--------------------------------------
Iteration    Energy (Eh)           Delta-E    RMSDP     MaxDP     MaxGrad    Time(sec)
--------------------------------------------------------------------------------------
   27    -3010.3392919339021319    -7.84e-03  5.35e-05  6.55e-03  3.15e-03    46.5
               *** Restarting incremental Fock matrix formation ***
   28    -3010.3409914813637442    -1.70e-03  4.16e-03  6.39e-01  7.08e-03    98.1
   29    -3010.3427798176053329    -1.79e-03  4.53e-03  8.43e-01  5.48e-03    86.1
   30    -3010.3440976742022031    -1.32e-03  3.30e-03  6.35e-01  3.92e-03    86.7
   31    -3010.3449926917928678    -8.95e-04  1.40e-03  2.10e-01  3.68e-03    83.7
               *** Scaled step length from 0.208068 to 0.200000 ***
   32    -3010.3456395312623499    -6.47e-04  2.50e-03  3.66e-01  3.50e-03    83.2
   33    -3010.3466711398759799    -1.03e-03  5.13e-04  8.33e-02  3.01e-03    86.0
   34    -3010.3472913412588241    -6.20e-04  1.87e-03  2.71e-01  3.84e-03    79.5
   35    -3010.3479107349576225    -6.19e-04  1.09e-03  1.14e-01  2.66e-03    83.4
   36    -3010.3482824534694373    -3.72e-04  3.36e-05  2.42e-03  1.64e-03    83.4
   37    -3010.3484553867710929    -1.73e-04  6.81e-04  1.00e-01  4.56e-04    70.8
   38    -3010.3485192049101897    -6.38e-05  2.66e-04  2.46e-02  2.04e-04    78.8
   39    -3010.3485285291608307    -9.32e-06  6.60e-05  6.13e-03  2.01e-04    74.4
   40    -3010.3485347497735347    -6.22e-06  5.78e-05  5.46e-03  1.01e-04    66.8
   41    -3010.3485362346709735    -1.48e-06  1.44e-05  1.31e-03  8.06e-05    66.4
   42    -3010.3485373722141958    -1.14e-06  1.83e-05  1.79e-03  5.19e-05    60.5
   43    -3010.3485379153462418    -5.43e-07  4.48e-06  5.18e-04  3.69e-05    59.9
   44    -3010.3485382014350762    -2.86e-07  4.03e-06  7.90e-04  2.55e-05    51.1
   45    -3010.3485382698509056    -6.84e-08  3.89e-06  6.18e-04  1.45e-05    51.3
   46    -3010.3485383113238640    -4.15e-08  3.70e-06  4.18e-04  1.45e-05    50.1
   47    -3010.3485383348197502    -2.35e-08  3.85e-06  1.01e-03  9.92e-06    51.4
               *** Restarting incremental Fock matrix formation ***
   48    -3010.3485388580247673    -5.23e-07  1.16e-05  1.96e-03  5.63e-06    97.8
   49    -3010.3485388459776004     1.20e-08  3.32e-06  4.54e-04  4.85e-06    55.2
   50    -3010.3485388833796605    -3.74e-08  4.39e-06  1.30e-03  4.08e-06    47.8
   51    -3010.3485388510689518     3.23e-08  3.01e-06  1.10e-03  3.74e-06    47.9
   52    -3010.3485387467662804     1.04e-07  4.62e-06  9.85e-04  3.12e-06    45.5
   53    -3010.3485386977481539     4.90e-08  2.87e-06  9.69e-04  2.35e-06    49.0
                  *** Gradient check signals convergence ***

               *****************************************************
               *                     SUCCESS                       *
               *           SCF CONVERGED AFTER  53 CYCLES          *
               *****************************************************

Recomputing exchange energy using gridx3       ... done (  167.316 sec)
Old exchange energy                            :   -127.862125593 Eh
New exchange energy                            :   -127.862169366 Eh
Exchange energy change after final integration :     -0.000043773 Eh
Total energy after final integration           :  -3010.348582470 Eh
             **** ENERGY FILE WAS UPDATED (c60_o2_SP_17.en.tmp) ****

----------------
TOTAL SCF ENERGY
----------------

Total Energy       :      -3010.34858247032662 Eh          -81915.74945 eV

Components:
Nuclear Repulsion  :      11812.61584543755453 Eh          321437.61873 eV
Electronic Energy  :     -14822.96438413530268 Eh         -403353.36698 eV
One Electron Energy:     -27673.56749028083505 Eh         -753036.05502 eV
Two Electron Energy:      12850.60310614553237 Eh          349682.68804 eV

Virial components:
Potential Energy   :      -6006.92318524422808 Eh         -163456.68985 eV
Kinetic Energy     :       2996.57460277390192 Eh           81540.94040 eV
Virial Ratio       :          2.00459657493048

DFT components:
N(Alpha)           :      230.999373993541 electrons
N(Beta)            :      229.999390059609 electrons
N(Total)           :      460.998764053150 electrons
E(XC)              :     -291.343891888468 Eh       

---------------
SCF CONVERGENCE
---------------

  Last Energy change         ...   -4.9018e-08  Tolerance :   1.0000e-08
  Last MAX-Density change    ...    9.6903e-04  Tolerance :   1.0000e-07
  Last RMS-Density change    ...    2.8681e-06  Tolerance :   5.0000e-09
  Last DIIS Error            ...    3.1470e-03  Tolerance :   5.0000e-07
  Last Orbital Gradient      ...    2.3507e-06  Tolerance :   1.0000e-05
  Last Orbital Rotation      ...    4.7729e-05  Tolerance :   1.0000e-05


----------------------
UHF SPIN CONTAMINATION
----------------------

Warning: in a DFT calculation there is little theoretical justification to 
         calculate <S**2> as in Hartree-Fock theory. We will do it anyways
         but you should keep in mind that the values have only limited relevance

Expectation value of <S**2>     :     1.775952
Ideal value S*(S+1) for S=0.5   :     0.750000
Deviation                       :     1.025952

----------------
ORBITAL ENERGIES
----------------
                 SPIN UP ORBITALS
  NO   OCC          E(Eh)            E(eV) 
   0   1.0000     -19.333631      -526.0948 
   1   1.0000     -19.333106      -526.0806 
   2   1.0000     -19.215837      -522.8895 
   3   1.0000     -19.214952      -522.8654 
   4   1.0000     -19.155464      -521.2467 
   5   1.0000     -19.155190      -521.2392 
   6   1.0000     -10.348753      -281.6039 
   7   1.0000     -10.348678      -281.6018 
   8   1.0000     -10.275275      -279.6045 
   9   1.0000     -10.274166      -279.5743 
  10   1.0000     -10.257175      -279.1119 
  11   1.0000     -10.241599      -278.6881 
  12   1.0000     -10.241294      -278.6798 
  13   1.0000     -10.239545      -278.6322 
  14   1.0000     -10.238950      -278.6160 
  15   1.0000     -10.231946      -278.4254 
  16   1.0000     -10.231634      -278.4169 
  17   1.0000     -10.231181      -278.4046 
  18   1.0000     -10.227362      -278.3007 
  19   1.0000     -10.226699      -278.2826 
  20   1.0000     -10.224390      -278.2198 
  21   1.0000     -10.224221      -278.2152 
  22   1.0000     -10.223988      -278.2089 
  23   1.0000     -10.223920      -278.2070 
  24   1.0000     -10.223876      -278.2058 
  25   1.0000     -10.223528      -278.1963 
  26   1.0000     -10.223320      -278.1907 
  27   1.0000     -10.223139      -278.1857 
  28   1.0000     -10.221618      -278.1444 
  29   1.0000     -10.221423      -278.1391 
  30   1.0000     -10.221410      -278.1387 
  31   1.0000     -10.221253      -278.1344 
  32   1.0000     -10.220778      -278.1215 
  33   1.0000     -10.220503      -278.1140 
  34   1.0000     -10.220445      -278.1125 
  35   1.0000     -10.219795      -278.0948 
  36   1.0000     -10.219792      -278.0947 
  37   1.0000     -10.219746      -278.0934 
  38   1.0000     -10.219239      -278.0796 
  39   1.0000     -10.219196      -278.0785 
  40   1.0000     -10.219166      -278.0776 
  41   1.0000     -10.219038      -278.0742 
  42   1.0000     -10.218662      -278.0639 
  43   1.0000     -10.218560      -278.0612 
  44   1.0000     -10.218436      -278.0578 
  45   1.0000     -10.218310      -278.0543 
  46   1.0000     -10.218123      -278.0493 
  47   1.0000     -10.217979      -278.0453 
  48   1.0000     -10.217683      -278.0373 
  49   1.0000     -10.217618      -278.0355 
  50   1.0000     -10.217299      -278.0268 
  51   1.0000     -10.217275      -278.0262 
  52   1.0000     -10.217067      -278.0205 
  53   1.0000     -10.216868      -278.0151 
  54   1.0000     -10.216762      -278.0122 
  55   1.0000     -10.216357      -278.0012 
  56   1.0000     -10.215848      -277.9873 
  57   1.0000     -10.215734      -277.9842 
  58   1.0000     -10.215620      -277.9812 
  59   1.0000     -10.215470      -277.9771 
  60   1.0000     -10.215361      -277.9741 
  61   1.0000     -10.215180      -277.9692 
  62   1.0000     -10.215150      -277.9684 
  63   1.0000     -10.215111      -277.9673 
  64   1.0000     -10.214871      -277.9608 
  65   1.0000     -10.214841      -277.9599 
  66   1.0000     -10.214432      -277.9488 
  67   1.0000     -10.214257      -277.9441 
  68   1.0000     -10.214039      -277.9381 
  69   1.0000     -10.213473      -277.9227 
  70   1.0000     -10.213418      -277.9212 
  71   1.0000     -10.212564      -277.8980 
  72   1.0000     -10.209124      -277.8044 
  73   1.0000      -1.366510       -37.1846 
  74   1.0000      -1.173921       -31.9440 
  75   1.0000      -1.167026       -31.7564 
  76   1.0000      -1.077643       -29.3242 
  77   1.0000      -1.075922       -29.2773 
  78   1.0000      -0.990291       -26.9472 
  79   1.0000      -0.972660       -26.4674 
  80   1.0000      -0.970379       -26.4054 
  81   1.0000      -0.968759       -26.3613 
  82   1.0000      -0.939684       -25.5701 
  83   1.0000      -0.934549       -25.4304 
  84   1.0000      -0.930695       -25.3255 
  85   1.0000      -0.930526       -25.3209 
  86   1.0000      -0.929001       -25.2794 
  87   1.0000      -0.900899       -24.5147 
  88   1.0000      -0.892357       -24.2823 
  89   1.0000      -0.889116       -24.1941 
  90   1.0000      -0.866393       -23.5758 
  91   1.0000      -0.864459       -23.5231 
  92   1.0000      -0.858470       -23.3602 
  93   1.0000      -0.857561       -23.3354 
  94   1.0000      -0.855366       -23.2757 
  95   1.0000      -0.844096       -22.9690 
  96   1.0000      -0.832595       -22.6560 
  97   1.0000      -0.818355       -22.2686 
  98   1.0000      -0.813161       -22.1272 
  99   1.0000      -0.805715       -21.9246 
 100   1.0000      -0.804896       -21.9023 
 101   1.0000      -0.803308       -21.8591 
 102   1.0000      -0.793354       -21.5883 
 103   1.0000      -0.790988       -21.5239 
 104   1.0000      -0.787336       -21.4245 
 105   1.0000      -0.786913       -21.4130 
 106   1.0000      -0.767225       -20.8772 
 107   1.0000      -0.740860       -20.1598 
 108   1.0000      -0.730668       -19.8825 
 109   1.0000      -0.729559       -19.8523 
 110   1.0000      -0.725098       -19.7309 
 111   1.0000      -0.724573       -19.7166 
 112   1.0000      -0.719750       -19.5854 
 113   1.0000      -0.714796       -19.4506 
 114   1.0000      -0.713285       -19.4095 
 115   1.0000      -0.711020       -19.3478 
 116   1.0000      -0.684495       -18.6261 
 117   1.0000      -0.675958       -18.3938 
 118   1.0000      -0.668371       -18.1873 
 119   1.0000      -0.663177       -18.0460 
 120   1.0000      -0.645471       -17.5642 
 121   1.0000      -0.635246       -17.2859 
 122   1.0000      -0.633903       -17.2494 
 123   1.0000      -0.630672       -17.1615 
 124   1.0000      -0.629206       -17.1216 
 125   1.0000      -0.628391       -17.0994 
 126   1.0000      -0.627036       -17.0625 
 127   1.0000      -0.623990       -16.9796 
 128   1.0000      -0.619866       -16.8674 
 129   1.0000      -0.617516       -16.8035 
 130   1.0000      -0.602899       -16.4057 
 131   1.0000      -0.597455       -16.2576 
 132   1.0000      -0.593579       -16.1521 
 133   1.0000      -0.578641       -15.7456 
 134   1.0000      -0.568524       -15.4703 
 135   1.0000      -0.562704       -15.3120 
 136   1.0000      -0.559625       -15.2282 
 137   1.0000      -0.554700       -15.0941 
 138   1.0000      -0.546135       -14.8611 
 139   1.0000      -0.544158       -14.8073 
 140   1.0000      -0.541036       -14.7223 
 141   1.0000      -0.537143       -14.6164 
 142   1.0000      -0.535737       -14.5781 
 143   1.0000      -0.534428       -14.5425 
 144   1.0000      -0.529367       -14.4048 
 145   1.0000      -0.525911       -14.3108 
 146   1.0000      -0.519171       -14.1274 
 147   1.0000      -0.516083       -14.0433 
 148   1.0000      -0.515144       -14.0178 
 149   1.0000      -0.510324       -13.8866 
 150   1.0000      -0.506396       -13.7797 
 151   1.0000      -0.496087       -13.4992 
 152   1.0000      -0.493291       -13.4231 
 153   1.0000      -0.491275       -13.3683 
 154   1.0000      -0.489253       -13.3132 
 155   1.0000      -0.483531       -13.1576 
 156   1.0000      -0.475542       -12.9402 
 157   1.0000      -0.475456       -12.9378 
 158   1.0000      -0.468893       -12.7592 
 159   1.0000      -0.467904       -12.7323 
 160   1.0000      -0.466553       -12.6956 
 161   1.0000      -0.463064       -12.6006 
 162   1.0000      -0.461716       -12.5639 
 163   1.0000      -0.455483       -12.3943 
 164   1.0000      -0.450193       -12.2504 
 165   1.0000      -0.448370       -12.2008 
[...]
 12 C      5.8996     6.0000     0.1004     3.8659     3.8638     0.0021
 13 C      6.0851     6.0000    -0.0851     4.0057     4.0047     0.0011
 14 C      6.1539     6.0000    -0.1539     4.1230     4.1229     0.0002
 15 C      6.0199     6.0000    -0.0199     3.9891     3.9890     0.0001
 16 C      6.0045     6.0000    -0.0045     3.9912     3.9911     0.0000
 17 C      6.0057     6.0000    -0.0057     3.9959     3.9958     0.0001
 18 C      6.0513     6.0000    -0.0513     4.0486     4.0485     0.0001
 19 C      6.0233     6.0000    -0.0233     3.9970     3.9953     0.0018
 20 C      6.0799     6.0000    -0.0799     4.0508     4.0507     0.0001
 21 C      6.1622     6.0000    -0.1622     4.1080     4.1078     0.0002
 22 C      6.1520     6.0000    -0.1520     3.9229     3.9229     0.0001
 23 C      6.1704     6.0000    -0.1704     3.9977     3.9977     0.0001
 24 C      6.0073     6.0000    -0.0073     3.9960     3.9959     0.0001
 25 C      6.0070     6.0000    -0.0070     3.9953     3.9953     0.0000
 26 C      6.0073     6.0000    -0.0073     3.9965     3.9965     0.0000
 27 C      5.9944     6.0000     0.0056     3.9662     3.9648     0.0014
 28 C      6.0292     6.0000    -0.0292     4.0096     4.0094     0.0001
 29 C      5.9844     6.0000     0.0156     3.9480     3.9437     0.0042
 30 C      5.9655     6.0000     0.0345     3.9463     3.9456     0.0006
 31 C      5.8842     6.0000     0.1158     3.9149     3.9149     0.0000
 32 C      5.6982     6.0000     0.3018     3.7617     3.7617    -0.0000
 33 C      5.9437     6.0000     0.0563     3.7733     3.7706     0.0027
 34 C      6.1218     6.0000    -0.1218     4.0208     4.0143     0.0065
 35 C      6.0106     6.0000    -0.0106     3.9959     3.9959     0.0000
 36 C      6.0428     6.0000    -0.0428     4.0331     4.0329     0.0002
 37 C      6.0066     6.0000    -0.0066     3.9802     3.9792     0.0010
 38 C      6.0144     6.0000    -0.0144     3.9827     3.9816     0.0011
 39 C      6.0842     6.0000    -0.0842     4.0503     4.0502     0.0001
 40 C      5.9606     6.0000     0.0394     3.9358     3.9349     0.0009
 41 C      5.9315     6.0000     0.0685     3.8913     3.8912     0.0000
 42 C      5.7618     6.0000     0.2382     3.8604     3.8603     0.0000
 43 C      6.0789     6.0000    -0.0789     3.9639     3.9637     0.0001
 44 C      5.9933     6.0000     0.0067     3.9816     3.9815     0.0001
 45 C      6.0271     6.0000    -0.0271     4.0170     4.0168     0.0002
 46 C      6.0072     6.0000    -0.0072     3.9758     3.9734     0.0024
 47 C      6.0122     6.0000    -0.0122     3.9700     3.9683     0.0016
 48 C      5.9890     6.0000     0.0110     3.9689     3.9688     0.0001
 49 C      6.1706     6.0000    -0.1706     4.1028     4.1026     0.0001
 50 C      6.1703     6.0000    -0.1703     3.9945     3.9944     0.0001
 51 C      6.0860     6.0000    -0.0860     4.0021     4.0015     0.0006
 52 C      6.0342     6.0000    -0.0342     4.0030     4.0028     0.0002
 53 C      6.0204     6.0000    -0.0204     3.9887     3.9836     0.0051
 54 C      6.0476     6.0000    -0.0476     4.0131     4.0129     0.0001
 55 C      6.0459     6.0000    -0.0459     4.0237     4.0197     0.0040
 56 C      5.8891     6.0000     0.1109     3.8656     3.8642     0.0013
 57 C      6.1678     6.0000    -0.1678     4.1158     4.1157     0.0001
 58 C      5.9596     6.0000     0.0404     3.9885     3.9866     0.0020
 59 C      6.0313     6.0000    -0.0313     4.0060     4.0059     0.0001
 60 H      0.9089     1.0000     0.0911     1.0067     1.0067     0.0000
 61 C      6.2412     6.0000    -0.2412     3.9055     3.9055     0.0000
 62 H      0.9201     1.0000     0.0799     1.0100     1.0100     0.0000
 63 H      0.9025     1.0000     0.0975     0.9937     0.9937     0.0000
 64 C      6.0031     6.0000    -0.0031     3.8926     3.8926     0.0000
 65 O      8.2471     8.0000    -0.2471     2.1671     2.1671    -0.0000
 66 H      0.8960     1.0000     0.1040     1.0116     1.0116    -0.0000
 67 C      5.8268     6.0000     0.1732     4.4277     4.4277     0.0000
 68 C      5.3821     6.0000     0.6179     3.0763     3.0763     0.0000
 69 O      8.3202     8.0000    -0.3202     2.1927     2.1927     0.0000
 70 H      0.9164     1.0000     0.0836     1.0131     1.0131     0.0000
 71 C      5.8805     6.0000     0.1195     4.3836     4.3836     0.0000
 72 H      0.9057     1.0000     0.0943     1.0026     1.0026     0.0000
 73 O      8.2470     8.0000    -0.2470     2.1537     2.1537     0.0000
 74 H      0.9090     1.0000     0.0910     1.0062     1.0062     0.0000
 75 O      8.3112     8.0000    -0.3112     2.2049     2.2049     0.0000
 76 C      6.0123     6.0000    -0.0123     3.8940     3.8940     0.0000
 77 C      6.2202     6.0000    -0.2202     3.9414     3.9414     0.0000
 78 H      0.9361     1.0000     0.0639     1.0131     1.0131    -0.0000
 79 H      0.9130     1.0000     0.0870     1.0052     1.0052     0.0000
 80 H      0.9064     1.0000     0.0936     0.9955     0.9955     0.0000
 81 O      7.9895     8.0000     0.0105     2.3525     1.8178     0.5347
 82 O      8.0029     8.0000    -0.0029     2.3387     1.8185     0.5202

  Mayer bond orders larger than 0.100000
B(  0-C ,  1-C ) :   1.1675 B(  0-C ,  3-C ) :   1.4083 B(  0-C ,  4-C ) :   1.2003 
B(  1-C ,  2-C ) :   1.4198 B(  1-C ,  5-C ) :   1.1999 B(  2-C ,  6-C ) :   1.1290 
B(  2-C ,  7-C ) :   1.2122 B(  3-C ,  8-C ) :   1.1680 B(  3-C ,  9-C ) :   1.2069 
B(  4-C , 10-C ) :   1.4172 B(  4-C , 11-C ) :   1.1576 B(  5-C , 11-C ) :   1.2116 
B(  5-C , 12-C ) :   1.3554 B(  6-C , 13-C ) :   1.2316 B(  6-C , 14-C ) :   1.4344 
B(  7-C ,  9-C ) :   1.3593 B(  7-C , 15-C ) :   1.2085 B(  8-C , 16-C ) :   1.4580 
B(  8-C , 17-C ) :   1.1608 B(  9-C , 18-C ) :   1.1961 B( 10-C , 16-C ) :   1.1633 
B( 10-C , 19-C ) :   1.2011 B( 11-C , 20-C ) :   1.4162 B( 12-C , 14-C ) :   1.2168 
B( 12-C , 21-C ) :   1.1761 B( 13-C , 15-C ) :   1.1637 B( 13-C , 22-C ) :   1.4253 
B( 14-C , 23-C ) :   1.2046 B( 15-C , 24-C ) :   1.4203 B( 16-C , 25-C ) :   1.1650 
B( 17-C , 18-C ) :   1.1753 B( 17-C , 26-C ) :   1.4547 B( 18-C , 27-C ) :   1.4135 
B( 19-C , 28-C ) :   1.2107 B( 19-C , 29-C ) :   1.3540 B( 20-C , 29-C ) :   1.2085 
B( 20-C , 30-C ) :   1.1527 B( 21-C , 30-C ) :   1.4356 B( 21-C , 31-C ) :   1.1651 
B( 22-C , 23-C ) :   0.1373 B( 22-C , 32-C ) :   0.9945 B( 22-C , 33-C ) :   1.1743 
B( 23-C , 31-C ) :   1.0903 B( 23-C , 32-C ) :   1.4010 B( 24-C , 27-C ) :   1.1434 
B( 24-C , 34-C ) :   1.2197 B( 25-C , 28-C ) :   1.1651 B( 25-C , 35-C ) :   1.4567 
B( 26-C , 35-C ) :   1.1637 B( 26-C , 36-C ) :   1.1730 B( 27-C , 37-C ) :   1.2189 
B( 28-C , 38-C ) :   1.4046 B( 29-C , 39-C ) :   1.1983 B( 30-C , 40-C ) :   1.1961 
B( 31-C , 41-C ) :   1.5298 B( 32-C , 42-C ) :   0.4191 B( 32-C , 68-C ) :   0.8837 
B( 33-C , 34-C ) :   1.3658 B( 33-C , 43-C ) :   1.1958 B( 34-C , 44-C ) :   1.2241 
B( 35-C , 45-C ) :   1.1654 B( 36-C , 37-C ) :   1.4171 B( 36-C , 46-C ) :   1.1938 
B( 37-C , 44-C ) :   1.1414 B( 38-C , 47-C ) :   1.2090 B( 38-C , 48-C ) :   1.1585 
B( 39-C , 40-C ) :   1.1538 B( 39-C , 48-C ) :   1.4212 B( 40-C , 49-C ) :   1.4245 
B( 41-C , 49-C ) :   1.1720 B( 41-C , 50-C ) :   1.0995 B( 42-C , 43-C ) :   1.0402 
B( 42-C , 50-C ) :   1.3769 B( 42-C , 68-C ) :   0.9029 B( 43-C , 50-C ) :   0.1641 
B( 43-C , 51-C ) :   1.4032 B( 44-C , 52-C ) :   1.4180 B( 45-C , 46-C ) :   1.2164 
B( 45-C , 47-C ) :   1.3999 B( 46-C , 53-C ) :   1.3484 B( 47-C , 54-C ) :   1.1646 
B( 48-C , 55-C ) :   1.2034 B( 49-C , 56-C ) :   1.1799 B( 50-C , 57-C ) :   1.2055 
B( 51-C , 52-C ) :   1.1589 B( 51-C , 58-C ) :   1.2232 B( 52-C , 53-C ) :   1.2174 
B( 53-C , 59-C ) :   1.2104 B( 54-C , 55-C ) :   1.1990 B( 54-C , 59-C ) :   1.4211 
B( 55-C , 56-C ) :   1.3618 B( 56-C , 57-C ) :   1.2042 B( 57-C , 58-C ) :   1.4365 
B( 58-C , 59-C ) :   1.1273 B( 60-H , 61-C ) :   0.9859 B( 61-C , 62-H ) :   0.9865 
B( 61-C , 64-C ) :   0.9525 B( 61-C , 66-H ) :   0.9847 B( 63-H , 64-C ) :   0.9841 
B( 64-C , 65-O ) :   0.8997 B( 64-C , 70-H ) :   0.9974 B( 65-O , 67-C ) :   1.2296 
B( 65-O , 68-C ) :  -0.1190 B( 67-C , 68-C ) :   0.8246 B( 67-C , 69-O ) :   2.1019 
B( 68-C , 71-C ) :   0.8040 B( 71-C , 73-O ) :   1.2081 B( 71-C , 75-O ) :   2.1103 
B( 72-H , 77-C ) :   0.9869 B( 73-O , 76-C ) :   0.8815 B( 74-H , 76-C ) :   0.9886 
B( 76-C , 77-C ) :   0.9676 B( 76-C , 80-H ) :   0.9805 B( 77-C , 78-H ) :   0.9869 
B( 77-C , 79-H ) :   0.9895 B( 81-O , 82-O ) :   1.8074 

-------
TIMINGS
-------

Total SCF time: 0 days 0 hours 54 min 16 sec 

Total time                  ....    3256.707 sec
Sum of individual times     ....    3246.225 sec  ( 99.7%)

SCF preparation             ....       2.891 sec  (  0.1%)
Fock matrix formation       ....    2981.148 sec  ( 91.5%)
  Startup                   ....      14.212 sec  (  0.5% of F)
  Split-RI-J                ....     214.922 sec  (  7.2% of F)
  Chain of spheres X        ....    2470.426 sec  ( 82.9% of F)
  XC integration            ....     232.277 sec  (  7.8% of F)
    XC Preparation          ....       0.000 sec  (  0.0% of XC)
    Basis function eval.    ....      32.166 sec  ( 13.8% of XC)
    Density eval.           ....      99.606 sec  ( 42.9% of XC)
    XC-Functional eval.     ....       1.489 sec  (  0.6% of XC)
    XC-Potential eval.      ....      75.475 sec  ( 32.5% of XC)
Diagonalization             ....       0.000 sec  (  0.0%)
Density matrix formation    ....      64.349 sec  (  2.0%)
Total Energy calculation    ....      11.859 sec  (  0.4%)
Population analysis         ....       2.280 sec  (  0.1%)
Orbital Transformation      ....       6.641 sec  (  0.2%)
Orbital Orthonormalization  ....       0.000 sec  (  0.0%)
DIIS solution               ....     111.063 sec  (  3.4%)
SOSCF solution              ....      65.993 sec  (  2.0%)
Finished LeanSCF after 3258.4 sec

Maximum memory used throughout the entire LEANSCF-calculation: 834.8 MB


-------------------------------------------------------------------------------
                          DFT DISPERSION CORRECTION                            
                                                                               
                              DFTD3 V3.1  Rev 1                                
                              USING zero damping                               
-------------------------------------------------------------------------------
The omegaB97X-D3 functional is recognized. Fit by Chai et al.
Active option DFTDOPT                   ...         3   

molecular C6(AA) [au] = 128991.777891 


            DFT-D V3
 parameters
 s6 scaling factor         :     1.0000 
 rs6 scaling factor        :     1.2810 
 s8 scaling factor         :     1.0000 
 rs8 scaling factor        :     1.0940 
 Damping factor alpha6     :    14.0000 
 Damping factor alpha8     :    16.0000 
 ad hoc parameters k1-k3   :    16.0000     1.3333    -4.0000 

 Edisp/kcal,au: -49.964686336386  -0.079623787483 
 E6   /kcal   : -25.156751251 
 E8   /kcal   : -24.807935086 
 % E8         :  49.650937302 

-------------------------   ----------------
Dispersion correction           -0.079623787
-------------------------   ----------------


-------------------------   --------------------
FINAL SINGLE POINT ENERGY     -3010.428206257810
-------------------------   --------------------



           ************************************************************
           *        Program running with 28 parallel MPI-processes    *
           *              working on a common directory               *
           ************************************************************

------------------------------------------------------------------------------
                              ORCA PROPERTY CALCULATIONS
------------------------------------------------------------------------------

GBWName                                 ... c60_o2_SP_17.gbw
Number of atoms                         ...     83
Number of basis functions               ...   2403
Max core memory                         ...   3500 MB

Electric properties:
Dipole moment                           ... YES
Quadrupole moment                       ...  NO
Static polarizability (Dipole/Dipole)   ...  NO
Static polarizability (Dipole/Quad.)    ...  NO
Static polarizability (Quad./Quad.)     ...  NO
Static polarizability (Velocity)        ...  NO

Atomic electric properties:
Dipole moment                           ...  NO
Quadrupole moment                       ...  NO
Static polarizability                   ...  NO

Choice of electric origin               ... Center of mass
Position of electric origin             ...    -0.195537     1.768763    -0.207071

General magnetic properties:
Magnetizability                         ...  NO

EPR properties:
g-Tensor (aka g-matrix)                 ...  NO
Zero-Field splitting spin-orbit         ...  NO
Zero-field splitting spin-spin          ...  NO
Hyperfine couplings                     ...  NO (   0 nuclei)
Quadrupole couplings                    ...  NO (   0 nuclei)
Contact density                         ...  NO (   0 nuclei)

NMR properties:
Chemical shifts                         ...  NO (   0 nuclei)
Spin-rotation constants                 ...  NO (   0 nuclei)
Spin-spin couplings                     ...  NO (   0 nuclei,    0 pairs)

Choice of magnetic origin               ... GIAO
Position of magnetic origin             ...     0.000000     0.000000     0.000000

Properties with geometric perturbations:
SCF Hessian                             ...  NO
IR spectrum                             ...  NO
VCD spectrum                            ...  NO
X-ray spectroscopy properties:
SCF XES/XAS/RIXS spectra                ...  NO


-------------
DIPOLE MOMENT
-------------

Method             : SCF
Type of density    : Electron Density
Multiplicity       :   2
Irrep              :   0
Energy             : -3010.3485824703266189 Eh
Relativity type    : 
Basis              : AO
                                X                 Y                 Z
Electronic contribution:     11.240139771     -47.185545900      -8.140064173
Nuclear contribution   :    -11.612355268      49.729222674       7.959969198
                        -----------------------------------------
Total Dipole Moment    :     -0.372215496       2.543676774      -0.180094975
                        -----------------------------------------
Magnitude (a.u.)       :      2.577066182
Magnitude (Debye)      :      6.550381668



--------------------
Rotational spectrum 
--------------------
 
Rotational constants in cm-1:             0.002125             0.001298             0.001168 
Rotational constants in MHz :            63.718958            38.914499            35.008970 

Dipole components along the rotational axes: 
x,y,z [a.u.] :    -2.566581     0.231941    -0.011533 
x,y,z [Debye]:    -6.523732     0.589547    -0.029313 

 

Dipole moment calculation done in   0.3 sec 

Maximum memory used throughout the entire PROP-calculation: 494.8 MB

--------------------------------
SUGGESTED CITATIONS FOR THIS RUN
--------------------------------

Below you find a list of papers that are relevant to this ORCA run
We neither can nor want to force you to cite these papers, but we appreciate if you do
You receive ORCA, which is the product of decades of hard work by many enthusiastic individuals, for free
The only thing we kindly ask in return is that you cite our papers,
We deeply appreciate it, if you show your appreciation for ORCA by not just citing the generic ORCA reference.

Please note that relegating all ORCA citations to the supporting information does *not* help us.
SI sections are not indexed - citations you put there will not count into any citation statistics
But we need these citations in order to attract the funding resources that allow us to do what we are doing

Therefore, if you are a happy ORCA user, please consider citing a few of the papers listed below in the main body of your paper

In addition to the list printed below, the program has created the file c60_o2_SP_17.bibtex that contains the list in bibtex format
You can import this file easily into all common literature databanks and citation aid programs


List of essential papers. We consider these as the minimum necessary citations

  1. Neese,F.
     Software update: the ORCA program system, version 5.0
     WIRES Comput. Molec. Sci., 2022 12(1)e1606
     doi.org/10.1002/wcms.1606

List of papers to cite with high priority. The work reported in these papers was absolutely
necessary for this run to complete.
Our perspective: the developers of density functionals and basis sets usually get cited in chemistry papers
Good! But without the algorithms to do something with them, the functionals or basis sets would not do anything.
Hence, in our opinion, the algorithm design and method developments papers are equally worthy of getting cited

  1. Neese,F.
     An improvement of the resolution of the identity approximation for the formation of the Coulomb matrix
     J. Comp. Chem., 2003 24(14)1740-1747
     doi.org/10.1002/jcc.10318
  2. Neese,F.; Wennmohs,F.; Hansen,A.; Becker,U.
     Efficient, approximate and parallel Hartree-Fock and hybrid DFT calculations. A 'chain-of-spheres' algorithm for the Hartree-Fock exchange
     Chem. Phys., 2009 356(1-3)98-109
     doi.org/10.1016/j.chemphys.2008.10.036
  3. Helmich-Paris,B.; de Souza,B.; Neese,F.; Izsák,R.
     An improved chain of spheres for exchange algorithm
     J. Chem. Phys., 2021 155 104109
     doi.org/doi: 10.1063/5.0058766.
  4. Neese,F.
     The SHARK Integral Generation and Digestion System
     J. Comp. Chem., 2022  1-16
     doi.org/10.1002/jcc.26942
  5. Grimme,S.; Antony,J.; Ehrlich,S.; Krieg,H.
     A consistent and accurate ab initio parametrization of density functional dispersion correction (DFT-D) for the 94 elements H-Pu
     J. Chem. Phys., 2010 132 154104
     doi.org/10.1063/1.3382344

List of suggested additional citations. These are papers that are important in the 'surrounding' of 
of this run, or papers that preceded the highly important papers. If you like your results we are grateful for a citation.

  1. Izsak,R.; Neese,F.
     An overlap fitted chain of spheres exchange method
     J. Chem. Phys., 2011 135 144105
     doi.org/10.1063/1.3646921
  2. Izsak,R.; Hansen,A.; Neese,F.
     The resolution of identity and chain of spheres approximations for the LPNO-CCSD singles Fock term
     Molec. Phys., 2012 110 2413-2417
     doi.org/10.1080/00268976.2012.687466
  3. Neese,F.
     The ORCA program system
     WIRES Comput. Molec. Sci., 2012 2(1)73-78
     doi.org/10.1002/wcms.81
  4. Izsak,R.; Neese,F.; Klopper,W.
     Robust fitting techniques in the chain of spheres approximation to the Fock exchange: The role of the complementary space
     J. Chem. Phys., 2013 139 
     doi.org/10.1063/1.4819264
  5. Neese,F.
     Software update: the ORCA program system, version 4.0
     WIRES Comput. Molec. Sci., 2018 8(1)1-6
     doi.org/10.1002/wcms.1327
  6. Neese,F.; Wennmohs,F.; Becker,U.; Riplinger,C.
     The ORCA quantum chemistry program package
     J. Chem. Phys., 2020 152 Art. No. L224108
     doi.org/10.1063/5.0004608

List of optional additional citations

  1. Neese,F.
     Approximate second-order SCF convergence for spin unrestricted wavefunctions
     Chem. Phys. Lett., 2000 325(1-3)93-98
     doi.org/10.1016/s0009-2614(00)00662-x

Timings for individual modules:

Sum of individual times          ...     3286.479 sec (=  54.775 min)
Startup calculation              ...       15.706 sec (=   0.262 min)   0.5 %
SCF iterations                   ...     3268.378 sec (=  54.473 min)  99.4 %
Property calculations            ...        2.395 sec (=   0.040 min)   0.1 %
                             ****ORCA TERMINATED NORMALLY****
TOTAL RUN TIME: 0 days 0 hours 54 minutes 47 seconds 813 msec
