
     Program PWSCF v.7.3.1 starts on 10Feb2025 at 22:19: 1 

     This program is part of the open-source Quantum ESPRESSO suite
     for quantum simulation of materials; please cite
         "P. Giannozzi et al., J. Phys.:Condens. Matter 21 395502 (2009);
         "P. Giannozzi et al., J. Phys.:Condens. Matter 29 465901 (2017);
         "P. Giannozzi et al., J. Chem. Phys. 152 154105 (2020);
          URL http://www.quantum-espresso.org", 
     in publications or presentations arising from this work. More details at
     http://www.quantum-espresso.org/quote

     Parallel version (MPI), running on     4 processors

     MPI processes distributed on     1 nodes
     77318 MiB available memory on the printing compute node when the environment starts

     Waiting for input...
     Reading input from standard input

     Current dimensions of program PWSCF are:
     Max number of different atomic species (ntypx) = 10
     Max number of k-points (npk) =  40000
     Max angular momentum in pseudopotentials (lmaxx) =  4

     gamma-point specific algorithms are used
     Found identity + ( -0.0000  0.2000  0.0000) symmetry
     This is a supercell, fractional translations are disabled

     R & G space division:  proc/nbgrp/npool/nimage =       4
     Subspace diagonalization in iterative solution of the eigenvalue problem:
     one sub-group per band group will be used
     custom distributed-memory algorithm (size of sub-group:  2*  2 procs)


     Parallelization info
     --------------------
     sticks:   dense  smooth     PW     G-vecs:    dense   smooth      PW
     Min        6786    2718    679              1493037   377750   47193
     Max        6788    2720    682              1493042   377754   47196
     Sum       27147   10875   2721              5972159  1511005  188779

     Using Slab Decomposition



     bravais-lattice index     =           14
     lattice parameter (alat)  =      27.6269  a.u.
     unit-cell volume          =   31632.2292 (a.u.)^3
     number of atoms/cell      =           60
     number of atomic types    =            1
     number of electrons       =      1200.00
     number of Kohn-Sham states=          720
     kinetic-energy cutoff     =      50.0000  Ry
     charge density cutoff     =     500.0000  Ry
     scf convergence threshold =      1.0E-06
     mixing beta               =       0.7000
     number of iterations used =            8  plain     mixing
     Exchange-correlation= SLA  PW   PBE  PBE
                           (   1   4   3   4   0   0   0)

     celldm(1)=  27.626851  celldm(2)=   0.894135  celldm(3)=   1.937323
     celldm(4)=  -0.500000  celldm(5)=   0.000000  celldm(6)=   0.000000

     crystal axes: (cart. coord. in units of alat)
               a(1) = (   1.000000   0.000000   0.000000 )  
               a(2) = (   0.000000   0.894135   0.000000 )  
               a(3) = (   0.000000  -0.968662   1.677771 )  

     reciprocal axes: (cart. coord. in units 2 pi/alat)
               b(1) = (  1.000000 -0.000000 -0.000000 )  
               b(2) = ( -0.000000  1.118400  0.645708 )  
               b(3) = (  0.000000  0.000000  0.596029 )  


     PseudoPot. # 1 for Zn read from file:
     /home/ys/qe-7.3.1/pseudo/Standard_solid-state_pseudopotentials_SSSP_1.3.0_PBE_efficiency/Zn_pbe_v1.uspp.F.UPF
     MD5 check sum: df62231357ef9e81f77b2b3087fa5675
     Pseudo is Ultrasoft, Zval = 20.0
     Generated by new atomic code, or converted to UPF format
     Using radial grid of  943 points,  6 beta functions with: 
                l(1) =   0
                l(2) =   0
                l(3) =   1
                l(4) =   1
                l(5) =   2
                l(6) =   2
     Q(r) pseudized with  8 coefficients,  rinner =    1.100   1.100   1.100
                                                       1.100   1.100

     atomic species   valence    mass     pseudopotential
     Zn               20.00    65.39000     Zn( 1.00)

     No symmetry found



   Cartesian axes

     site n.     atom                  positions (alat units)
         1        Zn     tau(   1) = (   0.0833329   0.0894128   0.0516234  )
         2        Zn     tau(   2) = (   0.0833329   0.2682397   0.0516234  )
         3        Zn     tau(   3) = (   0.0833329   0.4470667   0.0516234  )
         4        Zn     tau(   4) = (   0.0833329   0.6258936   0.0516234  )
         5        Zn     tau(   5) = (   0.0833329   0.8047205   0.0516234  )
         6        Zn     tau(   6) = (   0.4166665   0.0894128   0.0516234  )
         7        Zn     tau(   7) = (   0.4166665   0.2682397   0.0516234  )
         8        Zn     tau(   8) = (   0.4166665   0.4470667   0.0516234  )
         9        Zn     tau(   9) = (   0.4166665   0.6258936   0.0516234  )
        10        Zn     tau(  10) = (   0.4166665   0.8047205   0.0516234  )
        11        Zn     tau(  11) = (   0.7499991   0.0894128   0.0516234  )
        12        Zn     tau(  12) = (   0.7499991   0.2682397   0.0516234  )
        13        Zn     tau(  13) = (   0.7499991   0.4470667   0.0516234  )
        14        Zn     tau(  14) = (   0.7499991   0.6258936   0.0516234  )
        15        Zn     tau(  15) = (   0.7499991   0.8047205   0.0516234  )
        16        Zn     tau(  16) = (   0.0833329  -0.0000005   0.2064919  )
        17        Zn     tau(  17) = (   0.0833329   0.1788264   0.2064919  )
        18        Zn     tau(  18) = (   0.0833329   0.3576533   0.2064919  )
        19        Zn     tau(  19) = (   0.0833329   0.5364802   0.2064919  )
        20        Zn     tau(  20) = (   0.0833329   0.7153071   0.2064919  )
        21        Zn     tau(  21) = (   0.4166665  -0.0000005   0.2064919  )
        22        Zn     tau(  22) = (   0.4166665   0.1788264   0.2064919  )
        23        Zn     tau(  23) = (   0.4166665   0.3576533   0.2064919  )
        24        Zn     tau(  24) = (   0.4166665   0.5364802   0.2064919  )
        25        Zn     tau(  25) = (   0.4166665   0.7153071   0.2064919  )
        26        Zn     tau(  26) = (   0.7499991  -0.0000005   0.2064919  )
        27        Zn     tau(  27) = (   0.7499991   0.1788264   0.2064919  )
        28        Zn     tau(  28) = (   0.7499991   0.3576533   0.2064919  )
        29        Zn     tau(  29) = (   0.7499991   0.5364802   0.2064919  )
        30        Zn     tau(  30) = (   0.7499991   0.7153071   0.2064919  )
        31        Zn     tau(  31) = (   0.2499997   0.0000007   0.1032451  )
        32        Zn     tau(  32) = (   0.2499997   0.1788276   0.1032451  )
        33        Zn     tau(  33) = (   0.2499997   0.3576545   0.1032451  )
        34        Zn     tau(  34) = (   0.2499997   0.5364814   0.1032451  )
        35        Zn     tau(  35) = (   0.2499997   0.7153083   0.1032451  )
        36        Zn     tau(  36) = (   0.5833323   0.0000007   0.1032451  )
        37        Zn     tau(  37) = (   0.5833323   0.1788276   0.1032451  )
        38        Zn     tau(  38) = (   0.5833323   0.3576545   0.1032451  )
        39        Zn     tau(  39) = (   0.5833323   0.5364814   0.1032451  )
        40        Zn     tau(  40) = (   0.5833323   0.7153083   0.1032451  )
        41        Zn     tau(  41) = (   0.9166659   0.0000007   0.1032451  )
        42        Zn     tau(  42) = (   0.9166659   0.1788276   0.1032451  )
        43        Zn     tau(  43) = (   0.9166659   0.3576545   0.1032451  )
        44        Zn     tau(  44) = (   0.9166659   0.5364814   0.1032451  )
        45        Zn     tau(  45) = (   0.9166659   0.7153083   0.1032451  )
        46        Zn     tau(  46) = (   0.2499997  -0.0894127   0.2581137  )
        47        Zn     tau(  47) = (   0.2499997   0.0894142   0.2581137  )
        48        Zn     tau(  48) = (   0.2499997   0.2682411   0.2581137  )
        49        Zn     tau(  49) = (   0.2499997   0.4470680   0.2581137  )
        50        Zn     tau(  50) = (   0.2499997   0.6258949   0.2581137  )
        51        Zn     tau(  51) = (   0.5833323  -0.0894127   0.2581137  )
        52        Zn     tau(  52) = (   0.5833323   0.0894142   0.2581137  )
        53        Zn     tau(  53) = (   0.5833323   0.2682411   0.2581137  )
        54        Zn     tau(  54) = (   0.5833323   0.4470680   0.2581137  )
        55        Zn     tau(  55) = (   0.5833323   0.6258949   0.2581137  )
        56        Zn     tau(  56) = (   0.9166659  -0.0894127   0.2581137  )
        57        Zn     tau(  57) = (   0.9166659   0.0894142   0.2581137  )
        58        Zn     tau(  58) = (   0.9166659   0.2682411   0.2581137  )
        59        Zn     tau(  59) = (   0.9166659   0.4470680   0.2581137  )
        60        Zn     tau(  60) = (   0.9166659   0.6258949   0.2581137  )

     number of k points=     1  Gaussian smearing, width (Ry)=  0.0100
                       cart. coord. in units 2pi/alat
        k(    1) = (   0.0000000   0.0000000   0.0000000), wk =   2.0000000

     Dense  grid:  2986080 G-vectors     FFT dimensions: ( 200, 180, 384)

     Smooth grid:   755503 G-vectors     FFT dimensions: ( 125, 120, 243)

     Estimated max dynamical RAM per process >       3.90 GB

     Estimated total dynamical RAM >      15.61 GB

     Initial potential from superposition of free atoms

     starting charge    1199.9915, renormalised to    1200.0000

     negative rho (up, down):  3.177E-03 0.000E+00
     Starting wfcs are  780 randomized atomic wfcs

     total cpu time spent up to now is      231.4 secs

     Self-consistent Calculation

     iteration #  1     ecut=    50.00 Ry     beta= 0.70
     Davidson diagonalization with overlap
     ethr =  1.00E-02,  avg # of iterations =  7.0

     Threshold (ethr) on eigenvalues was too large:
     Diagonalizing with lowered threshold

     Davidson diagonalization with overlap
     ethr =  1.18E-04,  avg # of iterations = 10.0

     negative rho (up, down):  9.696E-04 0.000E+00

     total cpu time spent up to now is     1866.7 secs

     total energy              =  -27691.37390495 Ry
     estimated scf accuracy    <       1.50447065 Ry

     iteration #  2     ecut=    50.00 Ry     beta= 0.70
     Davidson diagonalization with overlap
     ethr =  1.25E-04,  avg # of iterations =  3.0

     negative rho (up, down):  2.041E-03 0.000E+00

     total cpu time spent up to now is     2821.7 secs

     total energy              =  -27691.64766747 Ry
     estimated scf accuracy    <       2.12933387 Ry

     iteration #  3     ecut=    50.00 Ry     beta= 0.70
     Davidson diagonalization with overlap
     ethr =  1.25E-04,  avg # of iterations =  2.0

     negative rho (up, down):  2.369E-03 0.000E+00

     total cpu time spent up to now is     3591.2 secs

     total energy              =  -27692.05945208 Ry
     estimated scf accuracy    <       0.01361689 Ry

     iteration #  4     ecut=    50.00 Ry     beta= 0.70
     Davidson diagonalization with overlap
     ethr =  1.13E-06,  avg # of iterations =  7.0

     negative rho (up, down):  2.496E-03 0.000E+00

     total cpu time spent up to now is     4415.2 secs

     total energy              =  -27692.06163762 Ry
     estimated scf accuracy    <       0.01775893 Ry

     iteration #  5     ecut=    50.00 Ry     beta= 0.70
     Davidson diagonalization with overlap
     ethr =  1.13E-06,  avg # of iterations =  9.0

     negative rho (up, down):  2.536E-03 0.000E+00

     total cpu time spent up to now is     5099.6 secs

     total energy              =  -27692.06137533 Ry
     estimated scf accuracy    <       0.07372435 Ry

     iteration #  6     ecut=    50.00 Ry     beta= 0.70
     Davidson diagonalization with overlap
     ethr =  1.13E-06,  avg # of iterations =  6.0

     negative rho (up, down):  2.547E-03 0.000E+00

     total cpu time spent up to now is     5732.2 secs

     total energy              =  -27692.06425964 Ry
     estimated scf accuracy    <       0.00192541 Ry

     iteration #  7     ecut=    50.00 Ry     beta= 0.70
     Davidson diagonalization with overlap
     ethr =  1.60E-07,  avg # of iterations =  2.0

     negative rho (up, down):  2.551E-03 0.000E+00

     total cpu time spent up to now is     6444.3 secs

     total energy              =  -27692.06436921 Ry
     estimated scf accuracy    <       0.00127538 Ry

     iteration #  8     ecut=    50.00 Ry     beta= 0.70
     Davidson diagonalization with overlap
     ethr =  1.06E-07,  avg # of iterations =  2.0

     negative rho (up, down):  2.553E-03 0.000E+00

     total cpu time spent up to now is     7066.2 secs

     total energy              =  -27692.06451845 Ry
     estimated scf accuracy    <       0.00015920 Ry

     iteration #  9     ecut=    50.00 Ry     beta= 0.70
     Davidson diagonalization with overlap
     ethr =  1.33E-08,  avg # of iterations =  2.0

     negative rho (up, down):  2.554E-03 0.000E+00

     total cpu time spent up to now is     7731.7 secs

     total energy              =  -27692.06453367 Ry
     estimated scf accuracy    <       0.00004535 Ry

     iteration # 10     ecut=    50.00 Ry     beta= 0.70
     Davidson diagonalization with overlap
     ethr =  3.78E-09,  avg # of iterations =  2.0

     negative rho (up, down):  2.554E-03 0.000E+00

     total cpu time spent up to now is     8420.7 secs

     total energy              =  -27692.06452596 Ry
     estimated scf accuracy    <       0.00006020 Ry

     iteration # 11     ecut=    50.00 Ry     beta= 0.70
     Davidson diagonalization with overlap
     ethr =  3.78E-09,  avg # of iterations =  2.0

     negative rho (up, down):  2.554E-03 0.000E+00

     total cpu time spent up to now is     9146.1 secs

     total energy              =  -27692.06452917 Ry
     estimated scf accuracy    <       0.00004201 Ry

     iteration # 12     ecut=    50.00 Ry     beta= 0.70
     Davidson diagonalization with overlap
     ethr =  3.50E-09,  avg # of iterations =  1.0

     negative rho (up, down):  2.554E-03 0.000E+00

     total cpu time spent up to now is     9763.9 secs

     total energy              =  -27692.06453145 Ry
     estimated scf accuracy    <       0.00000286 Ry

     iteration # 13     ecut=    50.00 Ry     beta= 0.70
     Davidson diagonalization with overlap
     ethr =  2.38E-10,  avg # of iterations =  2.0

     negative rho (up, down):  2.555E-03 0.000E+00

     total cpu time spent up to now is    10492.5 secs

     total energy              =  -27692.06453192 Ry
     estimated scf accuracy    <       0.00000185 Ry

     iteration # 14     ecut=    50.00 Ry     beta= 0.70
     Davidson diagonalization with overlap
     ethr =  1.54E-10,  avg # of iterations =  2.0

     negative rho (up, down):  2.555E-03 0.000E+00

     total cpu time spent up to now is    11215.8 secs

     End of self-consistent calculation

          k = 0.0000 0.0000 0.0000 ( 94390 PWs)   bands (ev):

  -127.1223-127.1222-127.1221-127.1219-127.1219-127.1218-127.1216-127.1216
  -127.1215-127.1215-127.1215-127.1215-127.1213-127.1213-127.1213-127.1213
  -127.1212-127.1212-127.1206-127.1206-127.1205-127.1205-127.1205-127.1205
  -127.1203-127.1203-127.1203-127.1202-127.1202-127.1201-127.0958-127.0956
  -127.0955-127.0955-127.0954-127.0954-127.0952-127.0951-127.0950-127.0950
  -127.0949-127.0949-127.0949-127.0948-127.0948-127.0948-127.0948-127.0948
  -127.0942-127.0942-127.0941-127.0940-127.0940-127.0939-127.0939-127.0939
  -127.0938-127.0938-127.0938-127.0938 -81.2933 -81.2931 -81.2931 -81.2924
   -81.2924 -81.2919 -81.2917 -81.2917 -81.2916 -81.2915 -81.2915 -81.2915
   -81.2909 -81.2908 -81.2908 -81.2908 -81.2904 -81.2903 -81.2890 -81.2890
   -81.2889 -81.2889 -81.2889 -81.2889 -81.2884 -81.2883 -81.2883 -81.2883
   -81.2879 -81.2879 -81.2828 -81.2828 -81.2825 -81.2825 -81.2825 -81.2825
   -81.2816 -81.2816 -81.2815 -81.2815 -81.2810 -81.2810 -81.2708 -81.2708
   -81.2705 -81.2705 -81.2704 -81.2704 -81.2698 -81.2698 -81.2697 -81.2697
   -81.2692 -81.2692 -81.2691 -81.2680 -81.2680 -81.2677 -81.2676 -81.2671
   -81.2670 -81.2669 -81.2666 -81.2666 -81.2665 -81.2665 -81.2664 -81.2663
   -81.2663 -81.2662 -81.2662 -81.2661 -81.2661 -81.2661 -81.2660 -81.2659
   -81.2658 -81.2658 -81.2658 -81.2657 -81.2657 -81.2655 -81.2654 -81.2650
   -81.2650 -81.2650 -81.2649 -81.2639 -81.2639 -81.2639 -81.2639 -81.2638
   -81.2637 -81.2636 -81.2636 -81.2636 -81.2636 -81.2635 -81.2635 -81.2632
   -81.2632 -81.2631 -81.2627 -81.2627 -81.2627 -81.2627 -81.2625 -81.2625
   -81.2624 -81.2624 -81.2623 -81.2623 -81.2609 -81.2609 -81.2584 -81.2581
   -81.2581 -81.2577 -81.2576 -81.2575 -81.2506 -81.2506 -81.2502 -81.2501
   -81.2500 -81.2500 -81.2500 -81.2499 -81.2499 -81.2498 -81.2497 -81.2497
   -81.2374 -81.2374 -81.2372 -81.2372 -81.2371 -81.2371 -81.2371 -81.2371
   -81.2371 -81.2370 -81.2370 -81.2370 -81.2352 -81.2350 -81.2349 -81.2347
   -81.2346 -81.2345 -81.2344 -81.2343 -81.2343 -81.2343 -81.2342 -81.2342
   -81.2341 -81.2341 -81.2341 -81.2340 -81.2338 -81.2338 -81.2336 -81.2335
   -81.2335 -81.2334 -81.2333 -81.2333 -81.2333 -81.2332 -81.2332 -81.2332
   -81.2331 -81.2331 -81.2292 -81.2291 -81.2289 -81.2288 -81.2287 -81.2286
   -10.1233  -9.5320  -9.5320  -9.3113  -9.3113  -8.9271  -8.9057  -8.9057
    -8.9057  -8.9057  -8.8664  -8.8664  -8.8589  -8.8565  -8.8565  -8.8175
    -8.8174  -8.7651  -8.7056  -8.7056  -8.7056  -8.7056  -8.7009  -8.7009
    -8.6918  -8.6918  -8.6918  -8.6918  -8.6576  -8.6576  -8.6433  -8.6432
    -8.6412  -8.6412  -8.6250  -8.6250  -8.6102  -8.6102  -8.6102  -8.6102
    -8.6045  -8.6045  -8.6045  -8.6045  -8.5898  -8.5897  -8.5897  -8.5897
    -8.5670  -8.5670  -8.5294  -8.5294  -8.5294  -8.5293  -8.5132  -8.5132
    -8.5095  -8.5095  -8.5095  -8.5095  -8.5067  -8.4987  -8.4986  -8.4576
    -8.4576  -8.4576  -8.4576  -8.4522  -8.4521  -8.4521  -8.4521  -8.4441
    -8.4440  -8.4247  -8.4247  -8.4011  -8.4011  -8.3863  -8.3863  -8.3863
    -8.3863  -8.3843  -8.3843  -8.3687  -8.3687  -8.3686  -8.3686  -8.3544
    -8.3543  -8.3543  -8.3543  -8.3415  -8.3415  -8.3415  -8.3414  -8.3164
    -8.3083  -8.3083  -8.2661  -8.2655  -8.2655  -8.2655  -8.2655  -8.2596
    -8.2595  -8.2564  -8.2563  -8.2556  -8.2556  -8.2355  -8.2355  -8.2355
    -8.2355  -8.2036  -8.1911  -8.1911  -8.1658  -8.1658  -8.1472  -8.1471
    -8.1471  -8.1471  -8.1281  -8.1281  -8.1242  -8.1242  -8.1242  -8.1242
    -8.1197  -8.1197  -8.0957  -8.0957  -8.0955  -8.0955  -8.0955  -8.0954
    -8.0954  -8.0954  -8.0910  -8.0910  -8.0909  -8.0909  -8.0873  -8.0872
    -8.0866  -8.0834  -8.0833  -8.0820  -8.0820  -8.0819  -8.0819  -8.0741
    -8.0393  -8.0393  -8.0183  -8.0183  -8.0110  -8.0110  -7.9897  -7.9896
    -7.9781  -7.9781  -7.9781  -7.9781  -7.9766  -7.9712  -7.9712  -7.9699
    -7.9699  -7.9579  -7.9579  -7.9519  -7.9449  -7.9449  -7.9448  -7.9448
    -7.9379  -7.9325  -7.9325  -7.9324  -7.9324  -7.9114  -7.9114  -7.9113
    -7.9113  -7.8921  -7.8920  -7.8920  -7.8920  -7.8715  -7.8715  -7.8599
    -7.8599  -7.8487  -7.8473  -7.8473  -7.8406  -7.8220  -7.8220  -7.8153
    -7.8008  -7.8007  -7.7849  -7.7849  -7.7849  -7.7849  -7.7614  -7.7614
    -7.7613  -7.7613  -7.7601  -7.7601  -7.7599  -7.7599  -7.7599  -7.7599
    -7.7589  -7.7588  -7.7588  -7.7588  -7.7557  -7.7557  -7.7557  -7.7557
    -7.7506  -7.7506  -7.7459  -7.7459  -7.7455  -7.7260  -7.7259  -7.7194
    -7.7194  -7.7194  -7.7194  -7.7005  -7.7004  -7.7004  -7.7004  -7.6961
    -7.6961  -7.6932  -7.6932  -7.6916  -7.6916  -7.6915  -7.6915  -7.6831
    -7.6831  -7.6830  -7.6830  -7.6682  -7.6682  -7.6541  -7.6541  -7.6447
    -7.6446  -7.6368  -7.6367  -7.6173  -7.6173  -7.6151  -7.6151  -7.6151
    -7.6151  -7.6116  -7.6116  -7.6080  -7.6080  -7.6079  -7.6079  -7.6045
    -7.6045  -7.5930  -7.5929  -7.5825  -7.5825  -7.5825  -7.5825  -7.5744
    -7.5744  -7.5618  -7.5618  -7.5477  -7.5477  -7.5476  -7.5476  -7.5438
    -7.5438  -7.5426  -7.5426  -7.5425  -7.5425  -7.5392  -7.5310  -7.5293
    -7.5263  -7.5191  -7.5191  -7.5180  -7.5180  -7.5094  -7.5094  -7.5093
    -7.5093  -7.4154  -7.4154  -7.4153  -7.4153  -6.5658  -6.5658  -5.9749
    -5.8167  -5.8167  -5.6945  -5.6945  -5.6944  -5.6944  -5.2297  -5.2297
    -5.2074  -5.2074  -5.1834  -5.1834  -5.1833  -5.1833  -4.3829  -4.3829
    -4.3829  -4.3829  -3.2780  -3.2780  -3.1516  -3.1516  -3.1515  -3.1515
    -3.0026  -2.7376  -2.7376  -2.6109  -2.4383  -2.4383  -2.4383  -2.4383
    -2.3837  -1.9870  -1.9870  -1.8812  -1.8812  -1.8812  -1.8812  -1.7900
    -1.7900  -1.4456  -1.4456  -1.4098  -1.4098  -1.2005  -1.2005  -0.8566
    -0.8566  -0.8566  -0.8566  -0.3535  -0.3535  -0.3535  -0.3535   0.1663
     0.1663   0.3060   0.3309   0.3310   0.5907   0.5907   0.5908   0.5908
     0.7651   1.2194   1.2194   1.2346   1.3674   1.3674   1.3718   1.3718
     1.3810   1.3810   1.3810   1.3810   1.5763   1.5763   1.7091   1.7091
     1.7091   1.7091   2.0813   2.0813   2.1861   2.1862   2.2109   2.2109
     2.5711   2.5711   2.5711   2.5711   2.8312   2.8312   2.8312   2.8312
     3.0561   3.0677   3.0677   3.0677   3.0677   3.1222   3.1222   3.3683
     3.5567   3.7568   3.7568   3.9358   3.9358   3.9359   3.9359   3.9388
     3.9388   4.0897   4.0897   4.2025   4.2390   4.2390   4.2579   4.2579
     4.2583   4.2585   4.3591   4.3591   4.3591   4.3591   4.4189   4.4190
     4.4535   4.4535   4.6404   4.6404   4.6404   4.6404   4.7696   4.7696
     4.8175   4.8175   4.8175   4.8175   4.8391   4.8391   4.9050   4.9050
     4.9684   5.0908   5.0908   5.1067   5.1067   5.1069   5.1069   5.1609
     5.1609   5.3211   5.3211   5.3211   5.3211   5.3645   5.5215   5.5215
     5.5632   5.5632   5.5632   5.5632   5.7034   5.7035   5.7035   5.7035

     the Fermi energy is    -0.9212 ev

!    total energy              =  -27692.06453208 Ry
     estimated scf accuracy    <       0.00000005 Ry
     smearing contrib. (-TS)   =      -0.01817834 Ry
     internal energy E=F+TS    =  -27692.04635374 Ry

     The total energy is F=E-TS. E is the sum of the following terms:
     one-electron contribution = -161787.71922249 Ry
     hartree contribution      =   80713.88035425 Ry
     xc contribution           =   -2528.27834089 Ry
     ewald contribution        =   55910.07085539 Ry

     convergence has been achieved in  14 iterations

     Writing all to output data dir /home/ys/Research/PSID_server_room/qe/zinc_surface/scf/zn_100_4layers_scf/pwscf.save/ :
     XML data file, charge density, pseudopotentials, collected wavefunctions

     init_run     :    229.18s CPU    231.28s WALL (       1 calls)
     electrons    :  10919.60s CPU  10984.60s WALL (       1 calls)

     Called by init_run:
     wfcinit      :    201.71s CPU    202.75s WALL (       1 calls)
     potinit      :      3.03s CPU      3.38s WALL (       1 calls)
     hinit0       :      0.53s CPU      0.59s WALL (       1 calls)

     Called by electrons:
     c_bands      :   9518.85s CPU   9557.16s WALL (      15 calls)
     sum_band     :   1046.54s CPU   1059.66s WALL (      15 calls)
     v_of_rho     :     38.51s CPU     42.25s WALL (      15 calls)
     newd         :    331.86s CPU    341.25s WALL (      15 calls)
     mix_rho      :      5.66s CPU      6.42s WALL (      15 calls)

     Called by c_bands:
     init_us_2    :      3.35s CPU      3.43s WALL (      31 calls)
     regterg      :   9507.11s CPU   9545.37s WALL (      15 calls)

     Called by *egterg:
     rdiaghg      :     93.74s CPU     95.05s WALL (      73 calls)
     h_psi        :   3083.53s CPU   3100.16s WALL (      75 calls)
     s_psi        :    975.76s CPU    978.07s WALL (      75 calls)
     g_psi        :      1.06s CPU      1.06s WALL (      59 calls)

     Called by h_psi:
     h_psi:calbec :   1549.96s CPU   1553.72s WALL (      75 calls)
     vloc_psi     :    549.93s CPU    560.46s WALL (      75 calls)
     add_vuspsi   :    981.81s CPU    984.15s WALL (      75 calls)

     General routines
     calbec       :   2210.57s CPU   2215.93s WALL (      90 calls)
     fft          :     29.74s CPU     32.46s WALL (     163 calls)
     ffts         :      1.10s CPU      1.16s WALL (      30 calls)
     fftw         :    536.62s CPU    548.86s WALL (   30732 calls)
     interpolate  :      3.24s CPU      3.70s WALL (      15 calls)

     Parallel routines

     PWSCF        :      3h 5m CPU      3h 6m WALL


   This run was terminated on:   1:25:58  11Feb2025            

=------------------------------------------------------------------------------=
   JOB DONE.
=------------------------------------------------------------------------------=
