LAMMPS data file via write_data, version 2 Aug 2023, timestep = 200017, units = real

40 atoms
4 atom types

-15 15 xlo xhi
-15 15 ylo yhi
-15 15 zlo zhi

Masses

1 15.9994
2 1.00794
3 15.9994
4 15.9994

Atoms # charge

39 4 -0.2064167970112403 -1.9342716361026964 -1.1139385516195397 -4.325086359320415 0 0 0
40 4 -0.1629536069965558 -1.9999189596645386 -2.2942801371140127 -4.489900968571244 0 0 0
37 2 0.1318873903550546 4.608969 -3.8286 1.439678 0 0 0
2 3 -0.6561289831149149 -4.093572 -1.399029 1.232661 0 0 0
12 1 -0.1916953762107442 -3.716933 -0.800485 -1.469755 0 0 0
17 1 -0.05353740379693826 -4.63815 0.394721 -1.456949 0 0 0
19 1 -0.2346330328511767 -5.920806 0.372055 -1.088332 0 0 0
24 2 0.193279341273323 -3.266383 -0.903905 -2.471505 0 0 0
25 2 0.1839882772348106 -4.296793 -1.713952 -1.267466 0 0 0
31 2 0.1384151616873639 -4.175928 1.346007 -1.750676 0 0 0
34 2 0.3114673751150525 -4.133634 -1.554311 2.185145 0 0 0
35 2 0.1290676289075894 -6.532081 1.279261 -1.08624 0 0 0
36 2 0.1578403836305113 -6.402135 -0.556626 -0.765117 0 0 0
1 3 -0.6442883452990601 0.17169 2.057246 -1.802725 0 0 0
3 1 -0.02517224987808716 1.050346 0.444506 -0.274697 0 0 0
4 1 0.04991359780879173 -0.305395 -0.008963 0.123537 0 0 0
5 1 0.004938164541230267 -2.604705 -0.656007 -0.45342 0 0 0
6 1 -0.09704349354361941 -1.339462 -0.192201 -0.812935 0 0 0
8 1 -0.1316962227582252 2.187003 -0.132062 0.311259 0 0 0
9 1 0.2686913931020656 1.257724 1.472379 -1.224712 0 0 0
10 1 -0.1125851252615709 -0.586309 -0.30619 1.466332 0 0 0
11 1 0.2636012696087527 -2.854163 -0.945741 0.902383 0 0 0
15 1 -0.1656621167015141 -1.842972 -0.770883 1.852322 0 0 0
16 1 -0.1606884655999113 2.556443 1.878716 -1.546186 0 0 0
21 2 0.2153789313017488 -1.148607 0.030136 -1.86322 0 0 0
22 2 0.1306181309890312 2.04281 -0.949452 1.021547 0 0 0
23 2 0.1196466501596681 0.182952 -0.156 2.226689 0 0 0
29 2 0.1258665377840837 -2.046613 -0.992006 2.905191 0 0 0
30 2 0.1281054181436527 2.698269 2.677347 -2.281971 0 0 0
33 2 0.3134649563457836 0.470608 2.763201 -2.390447 0 0 0
7 1 0.03256500562861928 3.494118 0.268234 0.005916 0 0 0
13 1 -0.2336982292593345 4.679642 -0.392949 0.686038 0 0 0
14 1 -0.1169403996640992 3.66369 1.284465 -0.938877 0 0 0
18 1 -0.07450211210632494 4.666704 -1.892876 0.565789 0 0 0
20 1 -0.2553135817421417 4.6241 -2.745812 1.592897 0 0 0
26 2 0.1244335667344981 5.607406 0.003244 0.237321 0 0 0
27 2 0.130326791361383 4.705088 -0.115308 1.754873 0 0 0
28 2 0.1144406136616856 4.669291 1.619038 -1.208331 0 0 0
32 2 0.1252188485148557 4.673208 -2.284922 -0.459296 0 0 0
38 2 0.1298001079059042 4.60538 -2.389875 2.628982 0 0 0

Velocities

39 0.0018554755135622189 -0.002247995339762203 0.0008486223806654335
40 -0.004897296872411927 -0.001441312490237573 -0.0020609063695714376
37 0 0 0
2 0 0 0
12 0 0 0
17 0 0 0
19 0 0 0
24 0 0 0
25 0 0 0
31 0 0 0
34 0 0 0
35 0 0 0
36 0 0 0
1 0 0 0
3 0 0 0
4 0 0 0
5 0 0 0
6 0 0 0
8 0 0 0
9 0 0 0
10 0 0 0
11 0 0 0
15 0 0 0
16 0 0 0
21 0 0 0
22 0 0 0
23 0 0 0
29 0 0 0
30 0 0 0
33 0 0 0
7 0 0 0
13 0 0 0
14 0 0 0
18 0 0 0
20 0 0 0
26 0 0 0
27 0 0 0
28 0 0 0
32 0 0 0
38 0 0 0
