
                                 *****************
                                 * O   R   C   A *
                                 *****************

                                            #,                                       
                                            ###                                      
                                            ####                                     
                                            #####                                    
                                            ######                                   
                                           ########,                                 
                                     ,,################,,,,,                         
                               ,,#################################,,                 
                          ,,##########################################,,             
                       ,#########################################, ''#####,          
                    ,#############################################,,   '####,        
                  ,##################################################,,,,####,       
                ,###########''''           ''''###############################       
              ,#####''   ,,,,##########,,,,          '''####'''          '####       
            ,##' ,,,,###########################,,,                        '##       
           ' ,,###''''                  '''############,,,                           
         ,,##''                                '''############,,,,        ,,,,,,###''
      ,#''                                            '''#######################'''  
     '                                                          ''''####''''         
             ,#######,   #######,   ,#######,      ##                                
            ,#'     '#,  ##    ##  ,#'     '#,    #''#        ,####,   ,####,        
            ##       ##  ##   ,#'  ##            #'  '#       #'       #'  '#        
            ##       ##  #######   ##           ,######,      #####,   #    #        
            '#,     ,#'  ##    ##  '#,     ,#' ,#      #,     #,   #   #,  ,#        
             '#######'   ##     ##  '#######'  #'      '#     '####' # '####'        



                #########################################################
                #                        -***-                          #
                #          Department of theory and spectroscopy        #
                #                                                       #
                #                      Frank Neese                      #
                #                                                       #
                #     Directorship, Architecture, Infrastructure        #
                #                    SHARK, DRIVERS                     #
                #        Core code/Algorithms in most modules           #
                #                                                       #
                #        Max Planck Institute fuer Kohlenforschung      #
                #                Kaiser Wilhelm Platz 1                 #
                #                 D-45470 Muelheim/Ruhr                 #
                #                      Germany                          #
                #                                                       #
                #                  All rights reserved                  #
                #                        -***-                          #
                #########################################################


                         Program Version 6.0.1  -  RELEASE   -


 With contributions from (in alphabetic order):
[Max-Planck-Institut fuer Kohlenforschung]                               
  Daniel Aravena         : Magnetic Suceptibility                        
  Michael Atanasov       : Ab Initio Ligand Field Theory (pilot matlab implementation)
  Alexander A. Auer      : GIAO ZORA, VPT2 properties, NMR spectrum      
  Ute Becker             : All parallelization in ORCA, NUMFREQ, NUMCALC 
  Giovanni Bistoni       : ED, misc. LED, open-shell LED, HFLD           
  Martin Brehm           : Molecular dynamics                            
  Dmytro Bykov           : pre 5.0 version of the SCF Hessian            
  Marcos Casanova-Páez   : Triplet and SCS-CIS(D). UHF-(DLPNO)-IP/EA/STEOM-CCSD. UHF-CVS-IP/STEOM-CCSD   
  Vijay G. Chilkuri      : MRCI spin determinant printing, contributions to CSF-ICE 
  Pauline Colinet        : FMM embedding                                 
  Dipayan Datta          : RHF DLPNO-CCSD density                        
  Achintya Kumar Dutta   : EOM-CC, STEOM-CC                              
  Nicolas Foglia         : Exact transition moments, OPA infrastructure, MCD improvements    
  Dmitry Ganyushin       : Spin-Orbit,Spin-Spin,Magnetic field MRCI      
  Miquel Garcia-Rates    : C-PCM and meta-GGA Hessian, CCSD/C-PCM, Gaussian charge scheme 
  Tiago L. C. Gouveia    : GS-ROHF, GS-ROCIS                             
  Yang Guo               : DLPNO-NEVPT2, F12-NEVPT2, CIM, IAO-localization        
  Andreas Hansen         : Spin unrestricted coupled pair/coupled cluster methods 
  Ingolf Harden          : AUTO-CI MPn and infrastructure                
  Benjamin Helmich-Paris : MC-RPA, TRAH-(SCF,CASSCF), AVAS, COSX integrals, SCF dyn. polar. 
  Lee Huntington         : MR-EOM, pCC                                   
  Robert Izsak           : Overlap fitted RIJCOSX, COSX-SCS-MP3, EOM     
  Riya Kayal             : Wick's Theorem for AUTO-CI, AUTO-CI UHF-CCSDT 
  Emily Kempfer          : AUTO-CI, RHF CISDT and CCSDT                  
  Christian Kollmar      : KDIIS, OOCD, Brueckner-CCSD(T), CCSD density, CASPT2, CASPT2-K, improved NEVPT2 
  Axel Koslowski         : Symmetry handling                             
  Simone Kossmann        : meta-GGA functionals, TD-DFT gradient, OOMP2, (MP2 Hessian; deprecated post 5.0) 
  Lucas Lang             : DCDCAS                                        
  Marvin Lechner         : AUTO-CI (C++ implementation), FIC-MRCC        
  Spencer Leger          : CASSCF response                               
  Dagmar Lenk            : GEPOL surface, SMD, ORCA-2-JSON               
  Dimitrios Liakos       : Extrapolation schemes; Compound Job, initial MDCI parallelization 
  Dimitrios Manganas     : Further ROCIS development; embedding schemes. LFT, Crystal Embedding 
  Dimitrios Pantazis     : SARC Basis sets                               
  Anastasios Papadopoulos: AUTO-CI, single reference methods and gradients 
  Taras Petrenko         : pre 6.0 DFT Hessian and TD-DFT gradient, (ASA, deprecated), ECA, 1-Electron XAS/XES, NRVS 
  Peter Pinski           : DLPNO-MP2, DLPNO-MP2 Gradient                 
  Christoph Reimann      : Effective Core Potentials                     
  Marius Retegan         : Local ZFS, SOC                                
  Christoph Riplinger    : Optimizer, TS searches, QM/MM, DLPNO-CCSD(T), (RO)-DLPNO pert. Triples 
  Michael Roemelt        : Original ROCIS implementation                 
  Masaaki Saitow         : Open-shell DLPNO-CCSD energy and density      
  Barbara Sandhoefer     : DKH picture change effects                    
  Kantharuban Sivalingam : CASSCF convergence/infrastructure, NEVPT2 and variants, FIC-MRCI 
  Bernardo de Souza      : ESD, SOC TD-DFT                               
  Georgi L. Stoychev     : AutoAux, RI-MP2 NMR, DLPNO-MP2 response, X2C  
  Van Anh Tran           : RI-MP2 g-tensors                              
  Willem Van den Heuvel  : Paramagnetic NMR                              
  Zikuan Wang            : NOTCH, Electric field optimization            
  Frank Wennmohs         : Technical directorship and infrastructure     
  Hang Xu                : AUTO-CI-Response properties                   
                                                                         
[FACCTs GmbH]                                                            
  Markus Bursch, Miquel Garcia-Rates, Christoph Riplinger, Bernardo de Souza, Georgi L. Stoychev 
                                                                 
  APM, Basis sets (HGBS, AHGBS, def-TZVP (Ac-Lr), def2-XVPD (La-Lu)), CI-OPT, improved COSX, DLPNO-Multilevel,           
  DOCKER, DRACO, updates on ESD, GOAT, IRC, LR-CPCM, MBIS, meta-GGA TD-DFT gradient, ML-optimized integration grids, 
  MM, NACMEs, nearIR, NEB, NEB-TS, NL-DFT gradient (VV10), 2- and 3-layer-ONIOM, interface openCOSMO-RS, QMMM,   
  Crystal-QMMM, SF, symmetry and pop. for TD-DFT, r2SCAN hybrids, SOLVATOR                                   
                                                                         
[Other institutions]                                                     
  V. Asgeirsson          : NEB                                           
  Christoph Bannwarth    : sTDA-DFT, sTD-DFT, PBEh-3c, B97-3c, D3        
  Sebastian Ehlert       : rSCAN, r2SCAN, r2SCAN-3c, D4, dhf basis sets  
  Marvin Friede          : D4 for Fr, Ra, Ac-Lr                          
  Lars Goerigk           : TD-DFT with DH, B97 family of functionals     
  Stefan Grimme          : VdW corrections, initial TS optimization, DFT functionals, gCP, sTDA/sTD-DF 
  Waldemar Hujo          : DFT-NL                                        
  H. Jonsson             : NEB                                           
  Holger Kruse           : gCP                                           
  Marcel Mueller         : wB97X-3c, vDZP basis set                      
  Hagen Neugebauer       : wr2SCAN                                       
  Tobias Risthaus        : range-separated hybrid DFT                    
  Lukas Wittmann         : regularized MP2, r2SCAN double-hybrids, wr2SCAN        
                                                                         
We gratefully acknowledge several colleagues who have allowed us to      
interface, adapt or use parts of their codes:                            
  Ed Valeev, F. Pavosevic, A. Kumar             : LibInt (2-el integral package), F12 methods 
  Garnet Chan, S. Sharma, J. Yang, R. Olivares  : DMRG                   
  Ulf Ekstrom                                   : XCFun DFT Library      
  Mihaly Kallay                                 : mrcc  (arbitrary order and MRCC methods)
  Frank Weinhold                                : gennbo (NPA and NBO analysis)           
  Simon Mueller                                 : openCOSMO-RS                            
  Christopher J. Cramer and Donald G. Truhlar   : smd solvation model                     
  S Lehtola, MJT Oliveira, MAL Marques          : LibXC Library                           
  Liviu Ungur et al                             : ANISO software                          


 Your calculation uses the libint2 library for the computation of 2-el integrals
 For citations please refer to: http://libint.valeyev.net

 Your ORCA version has been built with support for libXC version: 6.2.2
 For citations please refer to: https://libxc.gitlab.io

 This ORCA versions uses:
   CBLAS   interface :  Fast vector & matrix operations
   LAPACKE interface :  Fast linear algebra routines
   SCALAPACK package :  Parallel linear algebra routines
   Shared memory     :  Shared parallel matrices
   BLAS/LAPACK       :  OpenBLAS 0.3.27  USE64BITINT DYNAMIC_ARCH NO_AFFINITY SkylakeX SINGLE_THREADED
        Core in use  :  SkylakeX
   Copyright (c) 2011-2014, The OpenBLAS Project


Your calculation utilizes the atom-pairwise dispersion correction
with the Becke-Johnson damping scheme (D3BJ)


Warning: RI is on but no J-basis has been assigned. Assigning Def2/J (nothing to worry about!)
================================================================================

----- Orbital basis set information -----
Your calculation utilizes the basis: def2-SVP
   F. Weigend and R. Ahlrichs, Phys. Chem. Chem. Phys. 7, 3297 (2005).

----- AuxJ basis set information -----
Your calculation utilizes the auxiliary basis: def2/J
   F. Weigend, Phys. Chem. Chem. Phys. 8, 1057 (2006).

================================================================================
                                        WARNINGS
                       Please study these warnings very carefully!
================================================================================


WARNING: Geometry Optimization
  ===> : Switching off AutoStart
         For restart on a previous wavefunction, please use MOREAD

================================================================================
                                       INPUT FILE
================================================================================
NAME = ABN_2.inp
|  1> ! B3LYP def2-SVP OPT TightSCF ALLPOP KEEPDENS D3BJ
|  2> 
|  3> %pal
|  4> nprocs 4
|  5> end
|  6> 
|  7> * xyz 0 1
|  8> N          3.25020       -0.00010        0.00000
|  9> N         -3.54080        0.00010        0.00000
| 10> C          1.83980        0.00000        0.00000
| 11> C          1.14220       -1.20800        0.00000
| 12> C          1.14240        1.20810        0.00000
| 13> C         -0.94990       -0.00010        0.00000
| 14> C         -0.25260       -1.20800        0.00000
| 15> C         -0.25250        1.20800        0.00000
| 16> C         -2.37880        0.00000        0.00000
| 17> H          1.67430       -2.15590        0.00010
| 18> H          1.67460        2.15600        0.00000
| 19> H         -0.78210       -2.15780        0.00000
| 20> H         -0.78210        2.15780        0.00000
| 21> H          3.75640        0.87540       -0.00060
| 22> H          3.75630       -0.87570       -0.00060
| 23> *
| 24> 
| 25>                          ****END OF INPUT****
================================================================================

                       *****************************
                       * Geometry Optimization Run *
                       *****************************

Geometry optimization settings:
Update method            Update   .... BFGS
Choice of coordinates    CoordSys .... (2022) Redundant Internals
Initial Hessian          InHess   .... Almloef's Model
Max. no of cycles        MaxIter  .... 50

Convergence Tolerances:
Energy Change            TolE     ....  5.0000e-06 Eh
Max. Gradient            TolMAXG  ....  3.0000e-04 Eh/bohr
RMS Gradient             TolRMSG  ....  1.0000e-04 Eh/bohr
Max. Displacement        TolMAXD  ....  4.0000e-03 bohr
RMS Displacement         TolRMSD  ....  2.0000e-03 bohr
Strict Convergence                .... False

------------------------------------------------------------------------------
                        ORCA OPTIMIZATION COORDINATE SETUP
------------------------------------------------------------------------------

The optimization will be done in redundant internal coordinates (2022)
Making redundant internal coordinates   ...  (2022 redundants) done
Evaluating the initial hessian          ...  (Almloef) done
Evaluating the coordinates              ...  done
Calculating the B-matrix                .... done
Calculating the G-matrix                .... done
Diagonalizing the G-matrix              .... done
The first mode is                       ....   27
The number of degrees of freedom        ....   39

    -----------------------------------------------------------------
                    Redundant Internal Coordinates


    -----------------------------------------------------------------
         Definition                    Initial Value    Approx d2E/dq
    -----------------------------------------------------------------
      1. B(C   2,N   0)                  1.4104         0.519193   
      2. B(C   3,C   2)                  1.3950         0.613518   
      3. B(C   4,C   2)                  1.3949         0.613548   
      4. B(C   6,C   5)                  1.3947         0.614051   
      5. B(C   6,C   3)                  1.3948         0.613876   
      6. B(C   7,C   5)                  1.3949         0.613548   
      7. B(C   7,C   4)                  1.3949         0.613650   
      8. B(C   8,C   5)                  1.4289         0.541597   
      9. B(C   8,N   1)                  1.1620         1.293108   
     10. B(H   9,C   3)                  1.0870         0.364044   
     11. B(H  10,C   4)                  1.0871         0.363978   
     12. B(H  11,C   6)                  1.0874         0.363524   
     13. B(H  12,C   7)                  1.0875         0.363459   
     14. B(H  13,N   0)                  1.0113         0.430638   
     15. B(H  14,N   0)                  1.0113         0.430580   
     16. A(C   2,N   0,H  13)          120.0317         0.347772   
     17. A(H  13,N   0,H  14)          119.9361         0.302786   
     18. A(C   2,N   0,H  14)          120.0321         0.347764   
     19. A(C   3,C   2,C   4)          119.9977         0.432432   
     20. A(N   0,C   2,C   3)          120.0017         0.416973   
     21. A(N   0,C   2,C   4)          120.0006         0.416977   
     22. A(C   6,C   3,H   9)          119.3075         0.352967   
     23. A(C   2,C   3,C   6)          120.0057         0.432474   
     24. A(C   2,C   3,H   9)          120.6868         0.352932   
     25. A(C   2,C   4,H  10)          120.6913         0.352924   
     26. A(C   2,C   4,C   7)          119.9924         0.432449   
     27. A(C   7,C   4,H  10)          119.3162         0.352934   
     28. A(C   6,C   5,C   7)          120.0063         0.432500   
     29. A(C   7,C   5,C   8)          119.9925         0.422875   
     30. A(C   6,C   5,C   8)          120.0011         0.422937   
     31. A(C   3,C   6,C   5)          119.9971         0.432541   
     32. A(C   5,C   6,H  11)          120.8639         0.352898   
     33. A(C   3,C   6,H  11)          119.1390         0.352881   
     34. A(C   5,C   7,H  12)          120.8598         0.352839   
     35. A(C   4,C   7,H  12)          119.1395         0.352849   
     36. A(C   4,C   7,C   5)          120.0007         0.432449   
     37. L(N   1,C   8,C   5,C   7, 2) 180.0000         0.480995   
     38. L(N   1,C   8,C   5,C   7, 1) 179.9991         0.480995   
     39. D(C   3,C   2,N   0,H  13)    179.9607         0.021369   
     40. D(C   4,C   2,N   0,H  14)   -179.9607         0.021369   
     41. D(C   3,C   2,N   0,H  14)      0.0393         0.021369   
     42. D(C   4,C   2,N   0,H  13)     -0.0393         0.021369   
     43. D(C   6,C   3,C   2,C   4)      0.0000         0.026013   
     44. D(H   9,C   3,C   2,N   0)      0.0061         0.026013   
     45. D(H   9,C   3,C   2,C   4)   -179.9939         0.026013   
     46. D(C   6,C   3,C   2,N   0)    180.0000         0.026013   
     47. D(H  10,C   4,C   2,C   3)    180.0000         0.026016   
     48. D(H  10,C   4,C   2,N   0)      0.0000         0.026016   
     49. D(C   7,C   4,C   2,C   3)      0.0000         0.026016   
     50. D(C   7,C   4,C   2,N   0)    180.0000         0.026016   
     51. D(H  11,C   6,C   3,C   2)    180.0000         0.026046   
     52. D(C   5,C   6,C   3,H   9)    179.9940         0.026046   
     53. D(H  11,C   6,C   5,C   8)      0.0000         0.026061   
     54. D(H  11,C   6,C   5,C   7)    180.0000         0.026061   
     55. D(C   3,C   6,C   5,C   8)    180.0000         0.026061   
     56. D(C   3,C   6,C   5,C   7)      0.0000         0.026061   
     57. D(H  11,C   6,C   3,H   9)     -0.0060         0.026046   
     58. D(C   5,C   6,C   3,C   2)      0.0000         0.026046   
     59. D(H  12,C   7,C   5,C   8)      0.0000         0.026016   
     60. D(C   4,C   7,C   5,C   8)    180.0000         0.026016   
     61. D(C   4,C   7,C   5,C   6)      0.0000         0.026016   
     62. D(H  12,C   7,C   4,H  10)      0.0000         0.026025   
     63. D(H  12,C   7,C   4,C   2)    180.0000         0.026025   
     64. D(H  12,C   7,C   5,C   6)    180.0000         0.026016   
     65. D(C   5,C   7,C   4,H  10)    180.0000         0.026025   
     66. D(C   5,C   7,C   4,C   2)      0.0000         0.026025   
    -----------------------------------------------------------------

Number of atoms                         .... 15
Number of degrees of freedom            .... 66


         *************************************************************
         *                GEOMETRY OPTIMIZATION CYCLE   1            *
         *************************************************************
---------------------------------
CARTESIAN COORDINATES (ANGSTROEM)
---------------------------------
  N      3.250200   -0.000100    0.000000
  N     -3.540800    0.000100    0.000000
  C      1.839800    0.000000    0.000000
  C      1.142200   -1.208000    0.000000
  C      1.142400    1.208100    0.000000
  C     -0.949900   -0.000100    0.000000
  C     -0.252600   -1.208000    0.000000
  C     -0.252500    1.208000    0.000000
  C     -2.378800    0.000000    0.000000
  H      1.674300   -2.155900    0.000100
  H      1.674600    2.156000    0.000000
  H     -0.782100   -2.157800    0.000000
  H     -0.782100    2.157800    0.000000
  H      3.756400    0.875400   -0.000600
  H      3.756300   -0.875700   -0.000600

----------------------------
CARTESIAN COORDINATES (A.U.)
----------------------------
  NO LB      ZA    FRAG     MASS         X           Y           Z
   0 N     7.0000    0    14.007    6.141988   -0.000189    0.000000
   1 N     7.0000    0    14.007   -6.691142    0.000189    0.000000
   2 C     6.0000    0    12.011    3.476718    0.000000    0.000000
   3 C     6.0000    0    12.011    2.158445   -2.282789    0.000000
   4 C     6.0000    0    12.011    2.158823    2.282978    0.000000
   5 C     6.0000    0    12.011   -1.795051   -0.000189    0.000000
   6 C     6.0000    0    12.011   -0.477345   -2.282789    0.000000
   7 C     6.0000    0    12.011   -0.477156    2.282789    0.000000
   8 C     6.0000    0    12.011   -4.495281    0.000000    0.000000
   9 H     1.0000    0     1.008    3.163968   -4.074061    0.000189
  10 H     1.0000    0     1.008    3.164535    4.074250    0.000000
  11 H     1.0000    0     1.008   -1.477955   -4.077651    0.000000
  12 H     1.0000    0     1.008   -1.477955    4.077651    0.000000
  13 H     1.0000    0     1.008    7.098567    1.654266   -0.001134
  14 H     1.0000    0     1.008    7.098378   -1.654833   -0.001134

--------------------------------
INTERNAL COORDINATES (ANGSTROEM)
--------------------------------
 N      0   0   0     0.000000000000     0.00000000     0.00000000
 N      1   0   0     6.791000002945     0.00000000     0.00000000
 C      1   2   0     1.410400003545     0.00237497     0.00000000
 C      3   1   2     1.394958694729   120.00166005     0.00000000
 C      3   1   4     1.394945292834   120.00061696   180.00000085
 C      4   3   1     2.415761747358    90.00519862   180.00000000
 C      6   4   3     1.394722087012    30.00237179   180.00000000
 C      5   3   1     1.394900003584   119.99244707   180.00000000
 C      2   1   3     1.162000004303     0.00324339   180.00000000
 H      4   3   1     1.087034879845   120.68676998     0.00000000
 H      5   3   1     1.087083828414   120.69134198     0.00000000
 H      7   6   4     1.087423693875   120.86385017   180.00000000
 H      8   5   3     1.087472390454   119.13953981   180.00000000
 H      1   2   9     1.011305616518   120.03411626   179.96073458
 H      1   2   9     1.011342142897   120.02975080     0.03926227

---------------------------
INTERNAL COORDINATES (A.U.)
---------------------------
 N      0   0   0     0.000000000000     0.00000000     0.00000000
 N      1   0   0    12.833130181025     0.00000000     0.00000000
 C      1   2   0     2.665269745982     0.00237497     0.00000000
 C      3   1   2     2.636089901170   120.00166005     0.00000000
 C      3   1   4     2.636064575259   120.00061696   180.00000085
 C      4   3   1     4.565128107310    90.00519862   180.00000000
 C      6   4   3     2.635642777384    30.00237179   180.00000000
 C      5   3   1     2.635978990980   119.99244707   180.00000000
 C      2   1   3     2.195861775748     0.00324339   180.00000000
 H      4   3   1     2.054198220927   120.68676998     0.00000000
 H      5   3   1     2.054290720318   120.69134198     0.00000000
 H      7   6   4     2.054932972960   120.86385017   180.00000000
 H      8   5   3     2.055024996159   119.13953981   180.00000000
 H      1   2   9     1.911090652915   120.03411626   179.96073458
 H      1   2   9     1.911159677769   120.02975080     0.03926227

---------------------
BASIS SET INFORMATION
---------------------
There are 3 groups of distinct atoms

 Group   1 Type N   : 7s4p1d contracted to 3s2p1d pattern {511/31/1}
 Group   2 Type C   : 7s4p1d contracted to 3s2p1d pattern {511/31/1}
 Group   3 Type H   : 4s1p contracted to 2s1p pattern {31/1}

Atom   0N    basis set group =>   1
Atom   1N    basis set group =>   1
Atom   2C    basis set group =>   2
Atom   3C    basis set group =>   2
Atom   4C    basis set group =>   2
Atom   5C    basis set group =>   2
Atom   6C    basis set group =>   2
Atom   7C    basis set group =>   2
Atom   8C    basis set group =>   2
Atom   9H    basis set group =>   3
Atom  10H    basis set group =>   3
Atom  11H    basis set group =>   3
Atom  12H    basis set group =>   3
Atom  13H    basis set group =>   3
Atom  14H    basis set group =>   3
---------------------------------
AUXILIARY/J BASIS SET INFORMATION
---------------------------------
There are 3 groups of distinct atoms

 Group   1 Type N   : 12s5p4d2f1g contracted to 6s4p3d1f1g pattern {711111/2111/211/2/1}
 Group   2 Type C   : 12s5p4d2f1g contracted to 6s4p3d1f1g pattern {711111/2111/211/2/1}
 Group   3 Type H   : 5s2p1d contracted to 3s1p1d pattern {311/2/1}

Atom   0N    basis set group =>   1
Atom   1N    basis set group =>   1
Atom   2C    basis set group =>   2
Atom   3C    basis set group =>   2
Atom   4C    basis set group =>   2
Atom   5C    basis set group =>   2
Atom   6C    basis set group =>   2
Atom   7C    basis set group =>   2
Atom   8C    basis set group =>   2
Atom   9H    basis set group =>   3
Atom  10H    basis set group =>   3
Atom  11H    basis set group =>   3
Atom  12H    basis set group =>   3
Atom  13H    basis set group =>   3
Atom  14H    basis set group =>   3
--------------------------------------------------------------------------
By default, for Open MPI 4.0 and later, infiniband ports on a device
are not used by default.  The intent is to use UCX for these devices.
You can override this policy by setting the btl_openib_allow_ib MCA parameter
to true.

  Local host:              psid00
  Local adapter:           mlx5_0
  Local port:              1

--------------------------------------------------------------------------
--------------------------------------------------------------------------
WARNING: There was an error initializing an OpenFabrics device.

  Local host:   psid00
  Local device: mlx5_0
--------------------------------------------------------------------------


           ************************************************************
           *        Program running with 4 parallel MPI-processes     *
           *              working on a common directory               *
           ************************************************************
------------------------------------------------------------------------------
                             ORCA STARTUP CALCULATIONS
                           -- RI-GTO INTEGRALS CHOSEN --
------------------------------------------------------------------------------
------------------------------------------------------------------------------
                   ___                                                        
                  /   \      - P O W E R E D   B Y -                         
                 /     \                                                     
                 |  |  |   _    _      __       _____    __    __             
                 |  |  |  | |  | |    /  \     |  _  \  |  |  /  |          
                  \  \/   | |  | |   /    \    | | | |  |  | /  /          
                 / \  \   | |__| |  /  /\  \   | |_| |  |  |/  /          
                |  |  |   |  __  | /  /__\  \  |    /   |      \           
                |  |  |   | |  | | |   __   |  |    \   |  |\   \          
                \     /   | |  | | |  |  |  |  | |\  \  |  | \   \       
                 \___/    |_|  |_| |__|  |__|  |_| \__\ |__|  \__/        
                                                                              
                      - O R C A' S   B I G   F R I E N D -                    
                                      &                                       
                       - I N T E G R A L  F E E D E R -                       
                                                                              
 v1 FN, 2020, v2 2021, v3 2022-2024                                           
------------------------------------------------------------------------------


----------------------
SHARK INTEGRAL PACKAGE
----------------------

Number of atoms                             ...     15
Number of basis functions                   ...    156
Number of shells                            ...     72
Maximum angular momentum                    ...      2
Integral batch strategy                     ... SHARK/LIBINT Hybrid
RI-J (if used) integral strategy            ... SPLIT-RIJ (Revised 2003 algorithm where possible)
Printlevel                                  ...      1
Contraction scheme used                     ... SEGMENTED contraction
Prescreening option                         ... SCHWARTZ
   Thresh                                   ... 2.500e-11
   Tcut                                     ... 2.500e-12
   Tpresel                                  ... 2.500e-12 
Coulomb Range Separation                    ... NOT USED
Exchange Range Separation                   ... NOT USED
Multipole approximations                    ... NOT USED
Finite Nucleus Model                        ... NOT USED
CABS basis                                  ... NOT available
Auxiliary Coulomb fitting basis             ... AVAILABLE
   # of basis functions in Aux-J            ...    507
   # of shells in Aux-J                     ...    165
   Maximum angular momentum in Aux-J        ...      4
Auxiliary J/K fitting basis                 ... NOT available
Auxiliary Correlation fitting basis         ... NOT available
Auxiliary 'external' fitting basis          ... NOT available

Checking pre-screening integrals            ... done (  0.0 sec) Dimension = 72
Check shell pair data                       ... done (  0.0 sec)
Shell pair information
Shell pair cut-off parameter TPreSel        ...   2.5e-12
Total number of shell pairs                 ...      2628
Shell pairs after pre-screening             ...      2423
Total number of primitive shell pairs       ...      9726
Primitive shell pairs kept                  ...      6538
          la=0 lb=0:    718 shell pairs
          la=1 lb=0:    871 shell pairs
          la=1 lb=1:    283 shell pairs
          la=2 lb=0:    313 shell pairs
          la=2 lb=1:    198 shell pairs
          la=2 lb=2:     40 shell pairs

Calculating one electron integrals          ... done (  0.0 sec)
Calculating RI/J V-Matrix + Cholesky decomp.... done (  0.0 sec)
Calculating Nuclear repulsion               ... done (  0.0 sec) ENN=    375.334709261264 Eh

Diagonalization of the overlap matrix:
Smallest eigenvalue                        ... 2.633e-04
Time for diagonalization                   ...    0.002 sec
Threshold for overlap eigenvalues          ... 1.000e-07
Number of eigenvalues below threshold      ... 0
Time for construction of square roots      ...    0.001 sec
Total time needed                          ...    0.003 sec

-------------------
DFT GRID GENERATION
-------------------

General Integration Accuracy     IntAcc      ... 4.388
Radial Grid Type                 RadialGrid  ... OptM3 with GC (2021)
Angular Grid (max. ang.)         AngularGrid ... 4 (Lebedev-302)
Angular grid pruning method      GridPruning ... 4 (adaptive)
Weight generation scheme         WeightScheme... mBecke (2022)
Basis function cutoff            BFCut       ... 1.0000e-11
Integration weight cutoff        WCut        ... 1.0000e-14
Partially contracted basis set               ... off
Rotationally invariant grid construction     ... off
Angular grids for H and He will be reduced by one unit

Total number of grid points                  ...    73525
Total number of batches                      ...     1158
Average number of points per batch           ...       63
Average number of grid points per atom       ...     4902

--------------------
COSX GRID GENERATION
--------------------

GRIDX 1
-------
General Integration Accuracy     IntAcc      ... 3.816
Radial Grid Type                 RadialGrid  ... OptM3 with GC (2021)
Angular Grid (max. ang.)         AngularGrid ... 1 (Lebedev-50)
Angular grid pruning method      GridPruning ... 4 (adaptive)
Weight generation scheme         WeightScheme... mBecke (2022)
Basis function cutoff            BFCut       ... 1.0000e-11
Integration weight cutoff        WCut        ... 1.0000e-14
Partially contracted basis set               ... on
Rotationally invariant grid construction     ... off
Angular grids for H and He will be reduced by one unit

Total number of grid points                  ...     9386
Total number of batches                      ...       80
Average number of points per batch           ...      117
Average number of grid points per atom       ...      626
UseSFitting                                  ... on

GRIDX 2
-------
General Integration Accuracy     IntAcc      ... 4.020
Radial Grid Type                 RadialGrid  ... OptM3 with GC (2021)
Angular Grid (max. ang.)         AngularGrid ... 2 (Lebedev-110)
Angular grid pruning method      GridPruning ... 4 (adaptive)
Weight generation scheme         WeightScheme... mBecke (2022)
Basis function cutoff            BFCut       ... 1.0000e-11
Integration weight cutoff        WCut        ... 1.0000e-14
Partially contracted basis set               ... on
Rotationally invariant grid construction     ... off
Angular grids for H and He will be reduced by one unit

Total number of grid points                  ...    20788
Total number of batches                      ...      169
Average number of points per batch           ...      123
Average number of grid points per atom       ...     1386
UseSFitting                                  ... on

GRIDX 3
-------
General Integration Accuracy     IntAcc      ... 4.338
Radial Grid Type                 RadialGrid  ... OptM3 with GC (2021)
Angular Grid (max. ang.)         AngularGrid ... 3 (Lebedev-194)
Angular grid pruning method      GridPruning ... 4 (adaptive)
Weight generation scheme         WeightScheme... mBecke (2022)
Basis function cutoff            BFCut       ... 1.0000e-11
Integration weight cutoff        WCut        ... 1.0000e-14
Partially contracted basis set               ... on
Rotationally invariant grid construction     ... off
Angular grids for H and He will be reduced by one unit

Total number of grid points                  ...    45839
Total number of batches                      ...      366
Average number of points per batch           ...      125
Average number of grid points per atom       ...     3056
UseSFitting                                  ... on
Initializing property integral containers    ... done (  0.0 sec)

SHARK setup successfully completed in   0.8 seconds

Maximum memory used throughout the entire STARTUP-calculation: 21.1 MB
[psid00:40463] 3 more processes have sent help message help-mpi-btl-openib.txt / ib port not selected
[psid00:40463] Set MCA parameter "orte_base_help_aggregate" to 0 to see all help / error messages
[psid00:40463] 3 more processes have sent help message help-mpi-btl-openib.txt / error in device init
--------------------------------------------------------------------------
By default, for Open MPI 4.0 and later, infiniband ports on a device
are not used by default.  The intent is to use UCX for these devices.
You can override this policy by setting the btl_openib_allow_ib MCA parameter
to true.

  Local host:              psid00
  Local adapter:           mlx5_0
  Local port:              1

--------------------------------------------------------------------------
--------------------------------------------------------------------------
WARNING: There was an error initializing an OpenFabrics device.

  Local host:   psid00
  Local device: mlx5_0
--------------------------------------------------------------------------


           ************************************************************
           *        Program running with 4 parallel MPI-processes     *
           *              working on a common directory               *
           ************************************************************
-------------------------------------------------------------------------------
                                 ORCA GUESS
                   Start orbitals & Density for SCF / CASSCF
-------------------------------------------------------------------------------

------------
SCF SETTINGS
------------
Hamiltonian:
 Density Functional     Method          .... DFT(GTOs)
 Exchange Functional    Exchange        .... B88
   X-Alpha parameter    XAlpha          ....  0.666667
   Becke's b parameter  XBeta           ....  0.004200
 Correlation Functional Correlation     .... LYP
 LDA part of GGA corr.  LDAOpt          .... VWN-5
 Gradients option       PostSCFGGA      .... off
 Hybrid DFT is turned on
   Fraction HF Exchange ScalHFX         ....  0.200000
   Scaling of DF-GGA-X  ScalDFX         ....  0.720000
   Scaling of DF-GGA-C  ScalDFC         ....  0.810000
   Scaling of DF-LDA-C  ScalLDAC        ....  1.000000
   Perturbative correction              ....  0.000000
   NL short-range parameter             ....  4.800000
 RI-approximation to the Coulomb term is turned on
   Number of AuxJ basis functions       .... 507
   RIJ-COSX (HFX calculated with COS-X)).... on


General Settings:
 Integral files         IntName         .... ABN_2
 Hartree-Fock type      HFTyp           .... RHF
 Total Charge           Charge          ....    0
 Multiplicity           Mult            ....    1
 Number of Electrons    NEL             ....   62
 Basis Dimension        Dim             ....  156
 Nuclear Repulsion      ENuc            ....    375.3347092613 Eh

Convergence Acceleration:
 AO-DIIS                CNVDIIS         .... on
   Start iteration      DIISMaxIt       ....    12
   Startup error        DIISStart       ....  0.200000
   # of expansion vecs  DIISMaxEq       ....     5
   Bias factor          DIISBfac        ....   1.050
   Max. coefficient     DIISMaxC        ....  10.000
 MO-DIIS                CNVKDIIS        .... off
 Trust-Rad. Augm. Hess. CNVTRAH         .... auto
   Auto Start mean grad. ratio tolernc. ....  1.125000
   Auto Start start iteration           ....    50
   Auto Start num. interpolation iter.  ....    10
   Max. Number of Micro iterations      ....    24
   Max. Number of Macro iterations      .... Maxiter - #DIIS iter
   Number of Davidson start vectors     ....     2
   Converg. threshold    (grad. norm)   ....   1.000e-05
   Grad. Scal. Fac. for Micro threshold ....   0.100
   Minimum threshold for Micro iter.    ....   1.000e-02
   NR start threshold (gradient norm)   ....   1.000e-04
   Initial trust radius                 ....   0.400
   Minimum AH scaling param. (alpha)    ....   1.000
   Maximum AH scaling param. (alpha)    .... 1000.000
   Quad. conv. algorithm                .... NR
   White noise on init. David. guess    .... on
   Maximum white noise                  ....   0.010
   Pseudo random numbers                .... off
   Inactive MOs                         .... canonical
   Orbital update algorithm             .... Taylor
   Preconditioner                       .... Diag
   Full preconditioner red. dimension   ....   250
 SOSCF                  CNVSOSCF        .... on
   Start iteration      SOSCFMaxIt      ....   150
   Startup grad/error   SOSCFStart      ....  0.003300
   Hessian update       SOSCFHessUp     .... L-BFGS
 Level Shifting         CNVShift        .... on
   Level shift para.    LevelShift      ....    0.2500
   Turn off err/grad.   ShiftErr        ....    0.0010
 Zerner damping         CNVZerner       .... off
 Static damping         CNVDamp         .... on
   Fraction old density DampFac         ....    0.7000
   Max. Damping (<1)    DampMax         ....    0.9800
   Min. Damping (>=0)   DampMin         ....    0.0000
   Turn off err/grad.   DampErr         ....    0.1000

SCF Procedure:
 Maximum # iterations   MaxIter         ....   125
 SCF integral mode      SCFMode         .... Direct
   Integral package                     .... SHARK and LIBINT hybrid scheme
 Reset frequency        DirectResetFreq ....    20
 Integral Threshold     Thresh          ....  2.500e-11 Eh
 Primitive CutOff       TCut            ....  2.500e-12 Eh

Convergence Tolerance:
 Convergence Check Mode ConvCheckMode   .... Total+1el-Energy
 Convergence forced     ConvForced      .... 0
 Energy Change          TolE            ....  1.000e-08 Eh
 1-El. energy change                    ....  1.000e-05 Eh
 Orbital Gradient       TolG            ....  1.000e-05
 Orbital Rotation angle TolX            ....  1.000e-05
 DIIS Error             TolErr          ....  5.000e-07

------------------------------
INITIAL GUESS: MODEL POTENTIAL
------------------------------
Loading Hartree-Fock densities                     ... done
Calculating cut-offs                               ... done
Initializing the effective Hamiltonian             ... done
Setting up the integral package (SHARK)            ... done
Starting the Coulomb interaction                   ... done (   0.0 sec)
Making the grid                                    ... done (   0.1 sec)
Mapping shells                                     ... done
Starting the XC term evaluation                    ... done (   0.0 sec)
  promolecular density results
     # of electrons  =     61.998588891
     EX              =    -50.861476246
     EC              =     -2.086405891
     EX+EC           =    -52.947882137
Transforming the Hamiltonian                       ... done (   0.0 sec)
Diagonalizing the Hamiltonian                      ... done (   0.0 sec)
Back transforming the eigenvectors                 ... done (   0.0 sec)
Now organizing SCF variables                       ... done
                      ------------------
                      INITIAL GUESS DONE (   0.2 sec)
                      ------------------
             **** ENERGY FILE WAS UPDATED (ABN_2.en.tmp) ****
Finished Guess after   0.4 sec
Maximum memory used throughout the entire GUESS-calculation: 12.0 MB
[psid00:40480] 3 more processes have sent help message help-mpi-btl-openib.txt / ib port not selected
[psid00:40480] Set MCA parameter "orte_base_help_aggregate" to 0 to see all help / error messages
[psid00:40480] 3 more processes have sent help message help-mpi-btl-openib.txt / error in device init
--------------------------------------------------------------------------
By default, for Open MPI 4.0 and later, infiniband ports on a device
are not used by default.  The intent is to use UCX for these devices.
You can override this policy by setting the btl_openib_allow_ib MCA parameter
to true.

  Local host:              psid00
  Local adapter:           mlx5_0
  Local port:              1

--------------------------------------------------------------------------
--------------------------------------------------------------------------
WARNING: There was an error initializing an OpenFabrics device.

  Local host:   psid00
  Local device: mlx5_0
--------------------------------------------------------------------------


           ************************************************************
           *        Program running with 4 parallel MPI-processes     *
           *              working on a common directory               *
           ************************************************************

-------------------------------------------------------------------------------------------
                                      ORCA LEAN-SCF
                              memory conserving SCF solver
-------------------------------------------------------------------------------------------

----------------------------------------D-I-I-S--------------------------------------------
Iteration    Energy (Eh)           Delta-E    RMSDP     MaxDP     DIISErr   Damp  Time(sec)
-------------------------------------------------------------------------------------------
               ***  Starting incremental Fock matrix formation  ***
    1    -379.1083253087986691     0.00e+00  4.32e-03  9.04e-02  2.48e-01  0.700   0.9
    2    -379.2197356775980666    -1.11e-01  2.97e-03  5.03e-02  1.10e-01  0.700   0.5
                               ***Turning on AO-DIIS***
    3    -379.2618740425928650    -4.21e-02  1.51e-03  2.59e-02  3.90e-02  0.700   0.5
    4    -379.2884584585791004    -2.66e-02  2.61e-03  4.79e-02  1.90e-02  0.000   0.5
    5    -379.3457453361987177    -5.73e-02  4.09e-04  9.93e-03  1.02e-02  0.000   0.5
                              *** Initializing SOSCF ***
---------------------------------------S-O-S-C-F--------------------------------------
Iteration    Energy (Eh)           Delta-E    RMSDP     MaxDP     MaxGrad    Time(sec)
--------------------------------------------------------------------------------------
    6    -379.3462524269878600    -5.07e-04  1.29e-04  2.73e-03  1.65e-03     0.5
               *** Restarting incremental Fock matrix formation ***
    7    -379.3462109785188545     4.14e-05  7.35e-05  1.21e-03  2.52e-04     0.9
[psid00:40496] 3 more processes have sent help message help-mpi-btl-openib.txt / ib port not selected
[psid00:40496] Set MCA parameter "orte_base_help_aggregate" to 0 to see all help / error messages
[psid00:40496] 3 more processes have sent help message help-mpi-btl-openib.txt / error in device init
    8    -379.3462108445139052     1.34e-07  3.32e-05  7.03e-04  3.57e-04     0.7
    9    -379.3462131267170321    -2.28e-06  2.19e-05  4.61e-04  1.81e-04     0.7
   10    -379.3462129190294831     2.08e-07  1.20e-05  3.30e-04  2.39e-04     0.6
   11    -379.3462134561428343    -5.37e-07  8.36e-06  1.76e-04  5.48e-05     0.6
   12    -379.3462134140286821     4.21e-08  5.21e-06  7.90e-05  5.07e-05     0.6
   13    -379.3462135011365604    -8.71e-08  1.62e-06  3.11e-05  8.48e-06     0.6
   14    -379.3462135013483589    -2.12e-10  8.62e-07  2.22e-05  1.10e-05     0.5
                 **** Energy Check signals convergence ****

               *****************************************************
               *                     SUCCESS                       *
               *           SCF CONVERGED AFTER  14 CYCLES          *
               *****************************************************

Recomputing exchange energy using gridx3       ... done (    1.259 sec)
Old exchange energy                            :    -10.302165207 Eh
New exchange energy                            :    -10.302164045 Eh
Exchange energy change after final integration :      0.000001161 Eh
Total energy after final integration           :   -379.346212340 Eh
             **** ENERGY FILE WAS UPDATED (ABN_2.en.tmp) ****

----------------
TOTAL SCF ENERGY
----------------

Total Energy       :       -379.34621234011524 Eh          -10322.53523 eV

Components:
Nuclear Repulsion  :        375.33470926126444 Eh           10213.37668 eV
Electronic Energy  :       -754.68092276261291 Eh          -20535.91193 eV
One Electron Energy:      -1255.08692044930990 Eh          -34152.65139 eV
Two Electron Energy:        500.40599768669705 Eh           13616.73946 eV

Virial components:
Potential Energy   :       -754.89296578784752 Eh          -20541.68192 eV
Kinetic Energy     :        375.54675344773221 Eh           10219.14669 eV
Virial Ratio       :          2.01011713949728

DFT components:
N(Alpha)           :       31.000015596078 electrons
N(Beta)            :       31.000015596078 electrons
N(Total)           :       62.000031192156 electrons
E(X)               :      -40.947134603008 Eh       
E(C)               :       -2.467420083609 Eh       
E(XC)              :      -43.414554686617 Eh       

---------------
SCF CONVERGENCE
---------------

  Last Energy change         ...    2.1180e-10  Tolerance :   1.0000e-08
  Last MAX-Density change    ...    2.2181e-05  Tolerance :   1.0000e-07
  Last RMS-Density change    ...    8.6182e-07  Tolerance :   5.0000e-09
  Last DIIS Error            ...    1.6460e-03  Tolerance :   5.0000e-07
  Last Orbital Gradient      ...    1.1002e-05  Tolerance :   1.0000e-05
  Last Orbital Rotation      ...    1.7234e-05  Tolerance :   1.0000e-05


----------------
ORBITAL ENERGIES
----------------

  NO   OCC          E(Eh)            E(eV) 
   0   2.0000     -14.351617      -390.5274 
   1   2.0000     -14.308460      -389.3530 
   2   2.0000     -10.249195      -278.8948 
   3   2.0000     -10.216123      -277.9948 
   4   2.0000     -10.209880      -277.8250 
   5   2.0000     -10.209571      -277.8166 
   6   2.0000     -10.209540      -277.8157 
   7   2.0000     -10.198777      -277.5228 
   8   2.0000     -10.198753      -277.5222 
   9   2.0000      -0.919565       -25.0226 
  10   2.0000      -0.882439       -24.0124 
  11   2.0000      -0.850051       -23.1311 
  12   2.0000      -0.757322       -20.6078 
  13   2.0000      -0.754963       -20.5436 
  14   2.0000      -0.635316       -17.2878 
  15   2.0000      -0.631763       -17.1911 
  16   2.0000      -0.557956       -15.1828 
  17   2.0000      -0.535496       -14.5716 
  18   2.0000      -0.522083       -14.2066 
  19   2.0000      -0.462702       -12.5908 
  20   2.0000      -0.455531       -12.3956 
  21   2.0000      -0.437949       -11.9172 
  22   2.0000      -0.409510       -11.1433 
  23   2.0000      -0.400117       -10.8877 
  24   2.0000      -0.371571       -10.1110 
  25   2.0000      -0.362541        -9.8653 
  26   2.0000      -0.342134        -9.3099 
  27   2.0000      -0.320032        -8.7085 
  28   2.0000      -0.305141        -8.3033 
  29   2.0000      -0.272052        -7.4029 
  30   2.0000      -0.220200        -5.9920 
  31   0.0000      -0.028860        -0.7853 
  32   0.0000      -0.024361        -0.6629 
  33   0.0000       0.039588         1.0772 
  34   0.0000       0.049839         1.3562 
  35   0.0000       0.062805         1.7090 
  36   0.0000       0.073503         2.0001 
  37   0.0000       0.093107         2.5336 
  38   0.0000       0.116547         3.1714 
  39   0.0000       0.120763         3.2861 
  40   0.0000       0.156573         4.2606 
  41   0.0000       0.173304         4.7158 
*Only the first 10 virtual orbitals were printed.

                    ********************************
                    * MULLIKEN POPULATION ANALYSIS *
                    ********************************

-----------------------
MULLIKEN ATOMIC CHARGES
-----------------------
   0 N :   -0.108302
   1 N :    0.041501
   2 C :    0.136270
   3 C :   -0.032515
   4 C :   -0.032559
   5 C :   -0.083757
   6 C :    0.036045
   7 C :    0.036053
   8 C :   -0.123919
   9 H :   -0.037123
  10 H :   -0.037076
  11 H :   -0.011864
  12 H :   -0.011816
  13 H :    0.114522
  14 H :    0.114540
Sum of atomic charges:    0.0000000

--------------------------------
MULLIKEN REDUCED ORBITAL CHARGES
--------------------------------
  0 N s       :     3.297768  s :     3.297768
      pz      :     1.766899  p :     3.796694
      px      :     1.048041
      py      :     0.981754
      dz2     :     0.001747  d :     0.013841
      dxz     :     0.002156
      dyz     :     0.000028
      dx2y2   :     0.004107
      dxy     :     0.005803

  1 N s       :     3.534466  s :     3.534466
      pz      :     1.079114  p :     3.392635
      px      :     1.281469
      py      :     1.032052
      dz2     :     0.002960  d :     0.031398
      dxz     :     0.009662
      dyz     :     0.000000
      dx2y2   :     0.008825
      dxy     :     0.009950

  2 C s       :     2.963228  s :     2.963228
      pz      :     0.930568  p :     2.839531
      px      :     0.882919
      py      :     1.026044
      dz2     :     0.004291  d :     0.060971
      dxz     :     0.015472
      dyz     :     0.006907
      dx2y2   :     0.019356
      dxy     :     0.014944

  3 C s       :     3.227851  s :     3.227851
      pz      :     1.061740  p :     2.771939
      px      :     0.879442
      py      :     0.830757
      dz2     :     0.002638  d :     0.032725
      dxz     :     0.004960
      dyz     :     0.003086
      dx2y2   :     0.009671
      dxy     :     0.012369

  4 C s       :     3.227924  s :     3.227924
      pz      :     1.061714  p :     2.771914
      px      :     0.879433
      py      :     0.830768
      dz2     :     0.002638  d :     0.032721
      dxz     :     0.004958
      dyz     :     0.003087
      dx2y2   :     0.009671
      dxy     :     0.012367

  5 C s       :     3.031374  s :     3.031374
      pz      :     1.093271  p :     3.008264
      px      :     0.959773
      py      :     0.955220
      dz2     :     0.003314  d :     0.044119
      dxz     :     0.005163
      dyz     :     0.006638
      dx2y2   :     0.015732
      dxy     :     0.013272

  6 C s       :     3.224403  s :     3.224403
      pz      :     0.949731  p :     2.703436
      px      :     0.904657
      py      :     0.849048
      dz2     :     0.002656  d :     0.036116
      dxz     :     0.006788
      dyz     :     0.003723
      dx2y2   :     0.010795
      dxy     :     0.012154

  7 C s       :     3.224393  s :     3.224393
      pz      :     0.949733  p :     2.703452
      px      :     0.904613
      py      :     0.849106
      dz2     :     0.002656  d :     0.036102
      dxz     :     0.006785
      dyz     :     0.003720
      dx2y2   :     0.010791
      dxy     :     0.012149

  8 C s       :     3.112470  s :     3.112470
      pz      :     0.958802  p :     2.965053
      px      :     1.036292
      py      :     0.969958
      dz2     :     0.003403  d :     0.046396
      dxz     :     0.018576
      dyz     :     0.000052
      dx2y2   :     0.009521
      dxy     :     0.014843

  9 H s       :     1.013812  s :     1.013812
      pz      :     0.005274  p :     0.023311
      px      :     0.005863
      py      :     0.012174

 10 H s       :     1.013768  s :     1.013768
      pz      :     0.005273  p :     0.023308
      px      :     0.005862
      py      :     0.012173

 11 H s       :     0.988793  s :     0.988793
      pz      :     0.004546  p :     0.023070
      px      :     0.006267
      py      :     0.012257

 12 H s       :     0.988748  s :     0.988748
      pz      :     0.004546  p :     0.023068
      px      :     0.006266
      py      :     0.012255

 13 H s       :     0.840802  s :     0.840802
      pz      :     0.013514  p :     0.044676
      px      :     0.011213
      py      :     0.019949

 14 H s       :     0.840787  s :     0.840787
      pz      :     0.013512  p :     0.044673
      px      :     0.011210
      py      :     0.019951



                     *******************************
                     * LOEWDIN POPULATION ANALYSIS *
                     *******************************

----------------------
LOEWDIN ATOMIC CHARGES
----------------------
   0 N :   -0.030389
   1 N :   -0.086161
   2 C :    0.049258
   3 C :   -0.058958
   4 C :   -0.058957
   5 C :   -0.100238
   6 C :    0.019453
   7 C :    0.019477
   8 C :   -0.029566
   9 H :    0.026013
  10 H :    0.026029
  11 H :    0.037279
  12 H :    0.037279
  13 H :    0.074732
  14 H :    0.074749

-------------------------------
LOEWDIN REDUCED ORBITAL CHARGES
-------------------------------
  0 N s       :     3.029497  s :     3.029497
      pz      :     1.693262  p :     3.963182
      px      :     1.129843
      py      :     1.140077
      dz2     :     0.002684  d :     0.037711
      dxz     :     0.004084
      dyz     :     0.000031
      dx2y2   :     0.013222
      dxy     :     0.017691

  1 N s       :     3.426233  s :     3.426233
      pz      :     1.087894  p :     3.606978
      px      :     1.472961
      py      :     1.046123
      dz2     :     0.006378  d :     0.052949
      dxz     :     0.013533
      dyz     :     0.000000
      dx2y2   :     0.019086
      dxy     :     0.013953

  2 C s       :     2.836749  s :     2.836749
      pz      :     0.922877  p :     2.969304
      px      :     0.945961
      py      :     1.100466
      dz2     :     0.009313  d :     0.144690
      dxz     :     0.031615
      dyz     :     0.014327
      dx2y2   :     0.050864
      dxy     :     0.038571

  3 C s       :     2.854109  s :     2.854109
      pz      :     1.038366  p :     3.117483
      px      :     1.052429
      py      :     1.026688
      dz2     :     0.006463  d :     0.087366
      dxz     :     0.010275
      dyz     :     0.005716
      dx2y2   :     0.029695
      dxy     :     0.035217

  4 C s       :     2.854150  s :     2.854150
      pz      :     1.038341  p :     3.117453
      px      :     1.052415
      py      :     1.026697
      dz2     :     0.006462  d :     0.087354
      dxz     :     0.010271
      dyz     :     0.005717
      dx2y2   :     0.029695
      dxy     :     0.035209

  5 C s       :     2.832057  s :     2.832057
      pz      :     1.057216  p :     3.151638
      px      :     1.013870
      py      :     1.080552
      dz2     :     0.008374  d :     0.116543
      dxz     :     0.010838
      dyz     :     0.013897
      dx2y2   :     0.045909
      dxy     :     0.037526

  6 C s       :     2.857157  s :     2.857157
      pz      :     0.938777  p :     3.030810
      px      :     1.053785
      py      :     1.038247
      dz2     :     0.006281  d :     0.092580
      dxz     :     0.014221
      dyz     :     0.007320
      dx2y2   :     0.031008
      dxy     :     0.033750

  7 C s       :     2.857245  s :     2.857245
      pz      :     0.938792  p :     3.030744
      px      :     1.053749
      py      :     1.038203
      dz2     :     0.006279  d :     0.092534
      dxz     :     0.014213
      dyz     :     0.007314
      dx2y2   :     0.030992
      dxy     :     0.033737

  8 C s       :     2.908970  s :     2.908970
      pz      :     0.936700  p :     3.009634
      px      :     1.153992
      py      :     0.918942
      dz2     :     0.010220  d :     0.110962
      dxz     :     0.038595
      dyz     :     0.000057
      dx2y2   :     0.030293
      dxy     :     0.031797

  9 H s       :     0.904989  s :     0.904989
      pz      :     0.016356  p :     0.068998
      px      :     0.017701
      py      :     0.034940

 10 H s       :     0.904981  s :     0.904981
      pz      :     0.016352  p :     0.068990
      px      :     0.017701
      py      :     0.034937

 11 H s       :     0.894986  s :     0.894986
      pz      :     0.013617  p :     0.067735
      px      :     0.018345
      py      :     0.035774

 12 H s       :     0.894991  s :     0.894991
      pz      :     0.013615  p :     0.067731
      px      :     0.018345
      py      :     0.035771

 13 H s       :     0.801590  s :     0.801590
      pz      :     0.042909  p :     0.123679
      px      :     0.027881
      py      :     0.052889

 14 H s       :     0.801584  s :     0.801584
      pz      :     0.042903  p :     0.123667
      px      :     0.027872
      py      :     0.052892



                      *****************************
                      * MAYER POPULATION ANALYSIS *
                      *****************************

  NA   - Mulliken gross atomic population
  ZA   - Total nuclear charge
  QA   - Mulliken gross atomic charge
  VA   - Mayer's total valence
  BVA  - Mayer's bonded valence
  FA   - Mayer's free valence

  ATOM       NA         ZA         QA         VA         BVA        FA
  0 N      7.1083     7.0000    -0.1083     3.2010     3.2010     0.0000
  1 N      6.9585     7.0000     0.0415     3.1361     3.1361    -0.0000
  2 C      5.8637     6.0000     0.1363     4.0160     4.0160     0.0000
  3 C      6.0325     6.0000    -0.0325     3.7858     3.7858     0.0000
  4 C      6.0326     6.0000    -0.0326     3.7857     3.7857     0.0000
  5 C      6.0838     6.0000    -0.0838     3.8852     3.8852     0.0000
  6 C      5.9640     6.0000     0.0360     3.8880     3.8880    -0.0000
  7 C      5.9639     6.0000     0.0361     3.8879     3.8879     0.0000
  8 C      6.1239     6.0000    -0.1239     4.0532     4.0532     0.0000
  9 H      1.0371     1.0000    -0.0371     0.9868     0.9868     0.0000
 10 H      1.0371     1.0000    -0.0371     0.9868     0.9868     0.0000
 11 H      1.0119     1.0000    -0.0119     0.9855     0.9855     0.0000
 12 H      1.0118     1.0000    -0.0118     0.9855     0.9855    -0.0000
 13 H      0.8855     1.0000     0.1145     1.0002     1.0002     0.0000
 14 H      0.8855     1.0000     0.1145     1.0002     1.0002     0.0000

  Mayer bond orders larger than 0.100000
B(  0-N ,  2-C ) :   1.2376 B(  0-N , 13-H ) :   0.9481 B(  0-N , 14-H ) :   0.9481 
B(  1-N ,  8-C ) :   3.0064 B(  2-C ,  3-C ) :   1.3035 B(  2-C ,  4-C ) :   1.3034 
B(  3-C ,  6-C ) :   1.4009 B(  3-C ,  9-H ) :   0.9910 B(  4-C ,  7-C ) :   1.4010 
B(  4-C , 10-H ) :   0.9910 B(  5-C ,  6-C ) :   1.3517 B(  5-C ,  7-C ) :   1.3515 
B(  5-C ,  8-C ) :   1.0746 B(  6-C , 11-H ) :   0.9881 B(  7-C , 12-H ) :   0.9881 


Environment variable NBOEXE for nbo6.exe or nbo5.exe not set! Skipping NBO-Analysis

-------
TIMINGS
-------

Total SCF time: 0 days 0 hours 0 min 10 sec 

Total time                  ....      10.085 sec
Sum of individual times     ....      10.040 sec  ( 99.6%)

SCF preparation             ....       0.272 sec  (  2.7%)
Fock matrix formation       ....       9.623 sec  ( 95.4%)
  Startup                   ....       0.007 sec  (  0.1% of F)
  Split-RI-J                ....       0.822 sec  (  8.5% of F)
  Chain of spheres X        ....       6.880 sec  ( 71.5% of F)
  XC integration            ....       1.888 sec  ( 19.6% of F)
    XC Preparation          ....       0.000 sec  (  0.0% of XC)
    Basis function eval.    ....       0.803 sec  ( 42.6% of XC)
    Density eval.           ....       0.296 sec  ( 15.7% of XC)
    XC-Functional eval.     ....       0.207 sec  ( 11.0% of XC)
    XC-Potential eval.      ....       0.498 sec  ( 26.4% of XC)
Diagonalization             ....       0.000 sec  (  0.0%)
Density matrix formation    ....       0.017 sec  (  0.2%)
Total Energy calculation    ....       0.010 sec  (  0.1%)
Population analysis         ....       0.014 sec  (  0.1%)
Orbital Transformation      ....       0.012 sec  (  0.1%)
Orbital Orthonormalization  ....       0.000 sec  (  0.0%)
DIIS solution               ....       0.054 sec  (  0.5%)
SOSCF solution              ....       0.038 sec  (  0.4%)
Finished LeanSCF after  10.1 sec

Maximum memory used throughout the entire LEANSCF-calculation: 16.2 MB


-------------------------------------------------------------------------------
                          DFT DISPERSION CORRECTION                            
                                                                               
                              DFTD3 V3.1  Rev 1                                
                          USING Becke-Johnson damping                          
-------------------------------------------------------------------------------
The B3LYP functional is recognized
Active option DFTDOPT                   ...         4   

molecular C6(AA) [au] = 2989.442592 


            DFT-D V3
 parameters
 s6 scaling factor         :     1.0000 
 a1 scaling factor         :     0.3981 
 s8 scaling factor         :     1.9889 
 a2 scaling factor         :     4.4211 
 ad hoc parameters k1-k3   :    16.0000     1.3333    -4.0000 

 Edisp/kcal,au: -17.157269391391  -0.027341846252 
 E6   /kcal   :  -7.895446425 
 E8   /kcal   :  -9.261822966 
 % E8         :  53.981917256 

-------------------------   ----------------
Dispersion correction           -0.027341846
-------------------------   ----------------


-------------------------   --------------------
FINAL SINGLE POINT ENERGY      -379.373554186367
-------------------------   --------------------

--------------------------------------------------------------------------
By default, for Open MPI 4.0 and later, infiniband ports on a device
are not used by default.  The intent is to use UCX for these devices.
You can override this policy by setting the btl_openib_allow_ib MCA parameter
to true.

  Local host:              psid00
  Local adapter:           mlx5_0
  Local port:              1

--------------------------------------------------------------------------
--------------------------------------------------------------------------
WARNING: There was an error initializing an OpenFabrics device.

  Local host:   psid00
  Local device: mlx5_0
--------------------------------------------------------------------------


           ************************************************************
           *        Program running with 4 parallel MPI-processes     *
           *              working on a common directory               *
           ************************************************************
------------------------------------------------------------------------------
                         ORCA SCF GRADIENT CALCULATION
------------------------------------------------------------------------------

Nuc. rep. gradient        (SHARK) ... done (  0.0 sec)
HCore & Overlap gradient  (SHARK) ... done (  0.0 sec)
Split-RIJ-J gradient      (SHARK) ... done (  0.3 sec)
COSX-gradient                     ... done (  4.6 sec)
XC gradient                       ... [psid00:40521] 3 more processes have sent help message help-mpi-btl-openib.txt / ib port not selected
[psid00:40521] Set MCA parameter "orte_base_help_aggregate" to 0 to see all help / error messages
[psid00:40521] 3 more processes have sent help message help-mpi-btl-openib.txt / error in device init
done (  0.8 sec)
Dispersion correction             ... done (  0.0 sec)

-------------------
DISPERSION GRADIENT
-------------------

   1   N   :    0.000599990   -0.000000027   -0.000000002
   2   N   :   -0.000714010    0.000000023    0.000000000
   3   C   :    0.000490852    0.000000009    0.000000013
   4   C   :    0.000183022   -0.000523039    0.000000032
   5   C   :    0.000183122    0.000523121    0.000000029
   6   C   :   -0.000388221   -0.000000052    0.000000001
   7   C   :   -0.000117296   -0.000523002    0.000000008
   8   C   :   -0.000117246    0.000522984    0.000000008
   9   C   :   -0.000761358    0.000000007    0.000000000
  10   H   :    0.000108248   -0.000338101    0.000000026
  11   H   :    0.000108268    0.000338083    0.000000011
  12   H   :   -0.000073865   -0.000359227   -0.000000000
  13   H   :   -0.000073876    0.000359258    0.000000001
  14   H   :    0.000286186    0.000077529   -0.000000063
  15   H   :    0.000286184   -0.000077565   -0.000000064

Difference to translation invariance:
           :    0.0000000000   -0.0000000000   -0.0000000000

Difference to rotation invariance:
           :   -0.0000000000    0.0000000000   -0.0000000000

Norm of the Dispersion gradient    ...    0.0019304993
RMS gradient                       ...    0.0002877818
MAX gradient                       ...    0.0007613578

------------------
CARTESIAN GRADIENT
------------------

   1   N   :    0.029839276    0.000028939   -0.000016243
   2   N   :    0.000400023    0.000000443   -0.000000081
   3   C   :   -0.049579811    0.000013505    0.000012537
   4   C   :    0.016455439    0.006722860   -0.000007573
   5   C   :    0.016570840   -0.006720046   -0.000000180
   6   C   :    0.015271831   -0.000162062    0.000001692
   7   C   :   -0.016363569    0.006518751   -0.000001041
   8   C   :   -0.016343913   -0.006432825   -0.000001873
   9   C   :    0.004073257   -0.000000383    0.000000217
  10   H   :   -0.003000151    0.002551663    0.000004543
  11   H   :   -0.002973240   -0.002523198    0.000000349
  12   H   :    0.003104349    0.001321928   -0.000000684
  13   H   :    0.003088241   -0.001291376    0.000000070
  14   H   :   -0.000279444    0.003230104    0.000004018
  15   H   :   -0.000263127   -0.003258303    0.000004249

Difference to translation invariance:
           :   -0.0000000000   -0.0000000000    0.0000000000

Difference to rotation invariance:
           :    0.0000000673   -0.0000000300    0.0000000516

Norm of the Cartesian gradient     ...    0.0701965016
RMS gradient                       ...    0.0104642766
MAX gradient                       ...    0.0495798115

-------
TIMINGS
-------

Total SCF gradient time     ....        5.764 sec

Densities                   ....       0.000 sec  (  0.0%)
One electron gradient       ....       0.033 sec  (  0.6%)
RI-J Coulomb gradient       ....       0.266 sec  (  4.6%)
COSX gradient               ....       4.619 sec  ( 80.1%)
XC gradient                 ....       0.799 sec  ( 13.9%)

Maximum memory used throughout the entire SCFGRAD-calculation: 29.3 MB
------------------------------------------------------------------------------
                         ORCA GEOMETRY RELAXATION STEP
------------------------------------------------------------------------------

Reading the OPT-File                    .... done
Getting information on internals        .... done
Copying old internal coords+grads       .... done
Making the new internal coordinates     .... (2022 redundants) done
Validating the new internal coordinates .... (2022 redundants) done
Calculating the B-matrix                .... done
Calculating the G,G- and P matrices     .... done
Transforming gradient to internals      .... done
Projecting the internal gradient        .... done
Number of atoms                         ....  15
Number of internal coordinates          ....  66
Current Energy                          ....  -379.373554186 Eh
Current gradient norm                   ....     0.070196502 Eh/bohr
Maximum allowed component of the step   ....  0.300
Current trust radius                    ....  0.300
Evaluating the initial hessian          ....  (Almloef) done
Projecting the Hessian                  .... done
Forming the augmented Hessian           .... done
Diagonalizing the augmented Hessian     .... done
Last element of RFO vector              ....  0.996993828
Lowest eigenvalues of augmented Hessian:
 -0.003162814  0.021368703  0.021368851  0.024587253  0.026016922
Length of the computed step             ....  0.077714628
The final length of the internal step   ....  0.077714628
Converting the step to Cartesian space:
 Initial RMS(Int)=    0.0095660094
Transforming coordinates:
 Iter   0:  RMS(Cart)=    0.0113080567 RMS(Int)=    1.7294106836
done
Storing new coordinates                 .... done

                                .--------------------.
          ----------------------|Geometry convergence|-------------------------
          Item                value                   Tolerance       Converged
          ---------------------------------------------------------------------
          RMS gradient        0.0050646423            0.0001000000      NO
          MAX gradient        0.0292967039            0.0003000000      NO
          RMS step            0.0095660094            0.0020000000      NO
          MAX step            0.0560857582            0.0040000000      NO
          ........................................................
          Max(Bonds)      0.0297      Max(Angles)    0.60
          Max(Dihed)        0.01      Max(Improp)    0.00
          ---------------------------------------------------------------------

The optimization has not yet converged - more geometry cycles are needed


    ---------------------------------------------------------------------------
                         Redundant Internal Coordinates
                            (Angstroem and degrees)

        Definition                    Value    dE/dq     Step     New-Value
    ----------------------------------------------------------------------------
     1. B(C   2,N   0)                1.4104  0.029297 -0.0297    1.3807   
     2. B(C   3,C   2)                1.3950 -0.013021  0.0112    1.4062   
     3. B(C   4,C   2)                1.3949 -0.013059  0.0112    1.4062   
     4. B(C   6,C   5)                1.3947 -0.011819  0.0101    1.4048   
     5. B(C   6,C   3)                1.3948  0.003340 -0.0029    1.3919   
     6. B(C   7,C   5)                1.3949 -0.011632  0.0099    1.4049   
     7. B(C   7,C   4)                1.3949  0.003430 -0.0029    1.3920   
     8. B(C   8,C   5)                1.4289 -0.004473  0.0043    1.4332   
     9. B(C   8,N   1)                1.1620 -0.000400  0.0002    1.1622   
    10. B(H   9,C   3)                1.0870 -0.003694  0.0053    1.0924   
    11. B(H  10,C   4)                1.0871 -0.003656  0.0053    1.0924   
    12. B(H  11,C   6)                1.0874 -0.002666  0.0038    1.0913   
    13. B(H  12,C   7)                1.0875 -0.002632  0.0038    1.0913   
    14. B(H  13,N   0)                1.0113  0.002656 -0.0032    1.0081   
    15. B(H  14,N   0)                1.0113  0.002689 -0.0033    1.0081   
    16. A(C   2,N   0,H  13)          120.03 -0.001184    0.21    120.24   
    17. A(H  13,N   0,H  14)          119.94  0.002368   -0.42    119.51   
    18. A(C   2,N   0,H  14)          120.03 -0.001184    0.21    120.24   
    19. A(C   3,C   2,C   4)          120.00  0.004519   -0.60    119.40   
    20. A(N   0,C   2,C   3)          120.00 -0.002255    0.30    120.30   
    21. A(N   0,C   2,C   4)          120.00 -0.002263    0.30    120.30   
    22. A(C   6,C   3,H   9)          119.31 -0.000474    0.10    119.40   
    23. A(C   2,C   3,C   6)          120.01 -0.001861    0.26    120.26   
    24. A(C   2,C   3,H   9)          120.69  0.002335   -0.35    120.33   
    25. A(C   2,C   4,H  10)          120.69  0.002361   -0.36    120.33   
    26. A(C   2,C   4,C   7)          119.99 -0.001934    0.27    120.26   
    27. A(C   7,C   4,H  10)          119.32 -0.000427    0.09    119.41   
    28. A(C   6,C   5,C   7)          120.01  0.004239   -0.58    119.42   
    29. A(C   7,C   5,C   8)          119.99 -0.002121    0.29    120.28   
    30. A(C   6,C   5,C   8)          120.00 -0.002119    0.29    120.29   
    31. A(C   3,C   6,C   5)          120.00 -0.002482    0.33    120.33   
    32. A(C   5,C   6,H  11)          120.86  0.003365   -0.51    120.36   
    33. A(C   3,C   6,H  11)          119.14 -0.000884    0.18    119.32   
    34. A(C   5,C   7,H  12)          120.86  0.003366   -0.51    120.35   
    35. A(C   4,C   7,H  12)          119.14 -0.000885    0.18    119.32   
    36. A(C   4,C   7,C   5)          120.00 -0.002481    0.33    120.33   
    37. L(N   1,C   8,C   5,C   7, 2) 180.00  0.000000   -0.00    180.00   
    38. L(N   1,C   8,C   5,C   7, 1) 180.00 -0.000001    0.00    180.00   
    39. D(C   3,C   2,N   0,H  13)    179.96  0.000003   -0.01    179.95   
    40. D(C   4,C   2,N   0,H  14)   -179.96 -0.000003    0.01   -179.95   
    41. D(C   3,C   2,N   0,H  14)      0.04 -0.000005    0.01      0.05   
    42. D(C   4,C   2,N   0,H  13)     -0.04  0.000005   -0.01     -0.05   
    43. D(C   6,C   3,C   2,C   4)      0.00 -0.000000    0.00      0.00   
    44. D(H   9,C   3,C   2,N   0)      0.01  0.000004   -0.01     -0.00   
    45. D(H   9,C   3,C   2,C   4)   -179.99  0.000002   -0.00   -180.00   
    46. D(C   6,C   3,C   2,N   0)    180.00  0.000002   -0.00    180.00   
    47. D(H  10,C   4,C   2,C   3)    180.00  0.000001   -0.00    180.00   
    48. D(H  10,C   4,C   2,N   0)      0.00 -0.000002    0.00      0.00   
    49. D(C   7,C   4,C   2,C   3)      0.00  0.000000   -0.00     -0.00   
    50. D(C   7,C   4,C   2,N   0)    180.00 -0.000002    0.00    180.00   
    51. D(H  11,C   6,C   3,C   2)    180.00  0.000000   -0.00    180.00   
    52. D(C   5,C   6,C   3,H   9)    179.99 -0.000002    0.00    180.00   
    53. D(H  11,C   6,C   5,C   8)      0.00 -0.000000    0.00      0.00   
    54. D(H  11,C   6,C   5,C   7)    180.00  0.000000   -0.00    180.00   
    55. D(C   3,C   6,C   5,C   8)    180.00  0.000000   -0.00    180.00   
    56. D(C   3,C   6,C   5,C   7)      0.00  0.000000   -0.00     -0.00   
    57. D(H  11,C   6,C   3,H   9)     -0.01 -0.000001    0.00     -0.00   
    58. D(C   5,C   6,C   3,C   2)      0.00 -0.000000   -0.00     -0.00   
    59. D(H  12,C   7,C   5,C   8)      0.00  0.000000    0.00      0.00   
    60. D(C   4,C   7,C   5,C   8)    180.00 -0.000000    0.00    180.00   
    61. D(C   4,C   7,C   5,C   6)      0.00 -0.000000    0.00      0.00   
    62. D(H  12,C   7,C   4,H  10)      0.00 -0.000000    0.00      0.00   
    63. D(H  12,C   7,C   4,C   2)    180.00 -0.000000    0.00    180.00   
    64. D(H  12,C   7,C   5,C   6)    180.00 -0.000000    0.00    180.00   
    65. D(C   5,C   7,C   4,H  10)    180.00 -0.000000    0.00    180.00   
    66. D(C   5,C   7,C   4,C   2)      0.00  0.000000   -0.00     -0.00   
    ----------------------------------------------------------------------------

Geometry step timings:
Preparation and reading OPT file:      0.001 s (14.584 %)
Internal coordinates            :      0.000 s ( 1.511 %)
B/P matrices and projection     :      0.001 s (25.450 %)
Hessian update/contruction      :      0.000 s ( 8.217 %)
Making the step                 :      0.001 s (19.083 %)
Converting the step to Cartesian:      0.000 s ( 3.226 %)
Storing new data                :      0.000 s ( 1.341 %)
Checking convergence            :      0.000 s ( 0.221 %)
Final printing                  :      0.002 s (26.010 %)
Total time                      :      0.006 s
--------------------------------------------------------------------------
By default, for Open MPI 4.0 and later, infiniband ports on a device
are not used by default.  The intent is to use UCX for these devices.
You can override this policy by setting the btl_openib_allow_ib MCA parameter
to true.

  Local host:              psid00
  Local adapter:           mlx5_0
  Local port:              1

--------------------------------------------------------------------------
--------------------------------------------------------------------------
WARNING: There was an error initializing an OpenFabrics device.

  Local host:   psid00
  Local device: mlx5_0
--------------------------------------------------------------------------
[psid00:40542] 3 more processes have sent help message help-mpi-btl-openib.txt / ib port not selected
[psid00:40542] Set MCA parameter "orte_base_help_aggregate" to 0 to see all help / error messages
[psid00:40542] 3 more processes have sent help message help-mpi-btl-openib.txt / error in device init

Time for energy+gradient        :     18.106 s
Time for complete geometry iter :     18.436 s

         *************************************************************
         *                GEOMETRY OPTIMIZATION CYCLE   2            *
[...]

-------------------------------
LOEWDIN REDUCED ORBITAL CHARGES
-------------------------------
  0 N s       :     3.014983  s :     3.014983
      pz      :     1.666814  p :     3.946814
      px      :     1.137299
      py      :     1.142701
      dz2     :     0.002847  d :     0.041622
      dxz     :     0.004950
      dyz     :     0.000033
      dx2y2   :     0.013827
      dxy     :     0.019966

  1 N s       :     3.426658  s :     3.426658
      pz      :     1.091526  p :     3.608377
      px      :     1.472623
      py      :     1.044227
      dz2     :     0.006374  d :     0.052876
      dxz     :     0.013491
      dyz     :     0.000000
      dx2y2   :     0.019073
      dxy     :     0.013938

  2 C s       :     2.835163  s :     2.835163
      pz      :     0.914833  p :     2.972471
      px      :     0.961061
      py      :     1.096577
      dz2     :     0.009577  d :     0.149023
      dxz     :     0.035645
      dyz     :     0.013170
      dx2y2   :     0.050582
      dxy     :     0.040049

  3 C s       :     2.857501  s :     2.857501
      pz      :     1.049969  p :     3.122788
      px      :     1.052750
      py      :     1.020068
      dz2     :     0.006371  d :     0.086033
      dxz     :     0.010341
      dyz     :     0.005131
      dx2y2   :     0.028649
      dxy     :     0.035541

  4 C s       :     2.857501  s :     2.857501
      pz      :     1.049969  p :     3.122787
      px      :     1.052750
      py      :     1.020068
      dz2     :     0.006371  d :     0.086033
      dxz     :     0.010341
      dyz     :     0.005131
      dx2y2   :     0.028649
      dxy     :     0.035541

  5 C s       :     2.837504  s :     2.837504
      pz      :     1.066648  p :     3.154842
      px      :     1.012592
      py      :     1.075602
      dz2     :     0.008170  d :     0.112284
      dxz     :     0.010696
      dyz     :     0.012779
      dx2y2   :     0.043700
      dxy     :     0.036938

  6 C s       :     2.860091  s :     2.860091
      pz      :     0.937592  p :     3.029558
      px      :     1.055410
      py      :     1.036555
      dz2     :     0.006217  d :     0.091982
      dxz     :     0.014838
      dyz     :     0.006940
      dx2y2   :     0.030020
      dxy     :     0.033967

  7 C s       :     2.860091  s :     2.860091
      pz      :     0.937592  p :     3.029557
      px      :     1.055410
      py      :     1.036555
      dz2     :     0.006217  d :     0.091982
      dxz     :     0.014839
      dyz     :     0.006939
      dx2y2   :     0.030020
      dxy     :     0.033967

  8 C s       :     2.909711  s :     2.909711
      pz      :     0.936885  p :     3.010896
      px      :     1.153598
      py      :     0.920413
      dz2     :     0.010180  d :     0.110910
      dxz     :     0.039005
      dyz     :     0.000050
      dx2y2   :     0.030229
      dxy     :     0.031447

  9 H s       :     0.906678  s :     0.906678
      pz      :     0.016265  p :     0.068067
      px      :     0.017254
      py      :     0.034548

 10 H s       :     0.906678  s :     0.906678
      pz      :     0.016265  p :     0.068067
      px      :     0.017255
      py      :     0.034546

 11 H s       :     0.895619  s :     0.895619
      pz      :     0.013336  p :     0.066923
      px      :     0.018355
      py      :     0.035232

 12 H s       :     0.895619  s :     0.895619
      pz      :     0.013336  p :     0.066923
      px      :     0.018354
      py      :     0.035234

 13 H s       :     0.799292  s :     0.799292
      pz      :     0.042326  p :     0.123402
      px      :     0.028503
      py      :     0.052573

 14 H s       :     0.799292  s :     0.799292
      pz      :     0.042326  p :     0.123402
      px      :     0.028500
      py      :     0.052575



                      *****************************
                      * MAYER POPULATION ANALYSIS *
                      *****************************

  NA   - Mulliken gross atomic population
  ZA   - Total nuclear charge
  QA   - Mulliken gross atomic charge
  VA   - Mayer's total valence
  BVA  - Mayer's bonded valence
  FA   - Mayer's free valence

  ATOM       NA         ZA         QA         VA         BVA        FA
  0 N      7.0619     7.0000    -0.0619     3.2416     3.2416    -0.0000
  1 N      6.9603     7.0000     0.0397     3.1338     3.1338    -0.0000
  2 C      5.9037     6.0000     0.0963     4.0349     4.0349     0.0000
  3 C      6.0325     6.0000    -0.0325     3.7823     3.7823     0.0000
  4 C      6.0325     6.0000    -0.0325     3.7823     3.7823    -0.0000
  5 C      6.1020     6.0000    -0.1020     3.9013     3.9013    -0.0000
  6 C      5.9592     6.0000     0.0408     3.8913     3.8913     0.0000
  7 C      5.9592     6.0000     0.0408     3.8913     3.8913    -0.0000
  8 C      6.1238     6.0000    -0.1238     4.0548     4.0548     0.0000
  9 H      1.0363     1.0000    -0.0363     0.9866     0.9866    -0.0000
 10 H      1.0363     1.0000    -0.0363     0.9866     0.9866    -0.0000
 11 H      1.0111     1.0000    -0.0111     0.9851     0.9851    -0.0000
 12 H      1.0111     1.0000    -0.0111     0.9851     0.9851    -0.0000
 13 H      0.8851     1.0000     0.1149     1.0008     1.0008    -0.0000
 14 H      0.8851     1.0000     0.1149     1.0008     1.0008    -0.0000

  Mayer bond orders larger than 0.100000
B(  0-N ,  2-C ) :   1.2778 B(  0-N , 13-H ) :   0.9474 B(  0-N , 14-H ) :   0.9474 
B(  1-N ,  8-C ) :   3.0011 B(  2-C ,  3-C ) :   1.2873 B(  2-C ,  4-C ) :   1.2873 
B(  3-C ,  6-C ) :   1.4152 B(  3-C ,  9-H ) :   0.9856 B(  4-C ,  7-C ) :   1.4152 
B(  4-C , 10-H ) :   0.9856 B(  5-C ,  6-C ) :   1.3478 B(  5-C ,  7-C ) :   1.3478 
B(  5-C ,  8-C ) :   1.0829 B(  6-C , 11-H ) :   0.9844 B(  7-C , 12-H ) :   0.9844 


Environment variable NBOEXE for nbo6.exe or nbo5.exe not set! Skipping NBO-Analysis

-------
TIMINGS
-------

Total SCF time: 0 days 0 hours 0 min 4 sec 

Total time                  ....       4.016 sec
Sum of individual times     ....       3.989 sec  ( 99.3%)

SCF preparation             ....       0.266 sec  (  6.6%)
Fock matrix formation       ....       3.662 sec  ( 91.2%)
  Startup                   ....       0.003 sec  (  0.1% of F)
  Split-RI-J                ....       0.192 sec  (  5.2% of F)
  Chain of spheres X        ....       3.014 sec  ( 82.3% of F)
  XC integration            ....       0.446 sec  ( 12.2% of F)
    Basis function eval.    ....       0.167 sec  ( 37.4% of XC)
    Density eval.           ....       0.074 sec  ( 16.5% of XC)
    XC-Functional eval.     ....       0.045 sec  ( 10.1% of XC)
    XC-Potential eval.      ....       0.126 sec  ( 28.3% of XC)
Diagonalization             ....       0.000 sec  (  0.0%)
Density matrix formation    ....       0.004 sec  (  0.1%)
Total Energy calculation    ....       0.003 sec  (  0.1%)
Population analysis         ....       0.025 sec  (  0.6%)
Orbital Transformation      ....       0.006 sec  (  0.2%)
Orbital Orthonormalization  ....       0.000 sec  (  0.0%)
DIIS solution               ....       0.006 sec  (  0.2%)
SOSCF solution              ....       0.016 sec  (  0.4%)
Finished LeanSCF after   4.0 sec

Maximum memory used throughout the entire LEANSCF-calculation: 16.8 MB
[psid00:41062] 3 more processes have sent help message help-mpi-btl-openib.txt / ib port not selected
[psid00:41062] Set MCA parameter "orte_base_help_aggregate" to 0 to see all help / error messages
[psid00:41062] 3 more processes have sent help message help-mpi-btl-openib.txt / error in device init


-------------------------------------------------------------------------------
                          DFT DISPERSION CORRECTION                            
                                                                               
                              DFTD3 V3.1  Rev 1                                
                          USING Becke-Johnson damping                          
-------------------------------------------------------------------------------
The B3LYP functional is recognized
Active option DFTDOPT                   ...         4   

molecular C6(AA) [au] = 2992.629794 


            DFT-D V3
 parameters
 s6 scaling factor         :     1.0000 
 a1 scaling factor         :     0.3981 
 s8 scaling factor         :     1.9889 
 a2 scaling factor         :     4.4211 
 ad hoc parameters k1-k3   :    16.0000     1.3333    -4.0000 

 Edisp/kcal,au: -17.121791907935  -0.027285309289 
 E6   /kcal   :  -7.879882496 
 E8   /kcal   :  -9.241909412 
 % E8         :  53.977466038 

-------------------------   ----------------
Dispersion correction           -0.027285309
-------------------------   ----------------


-------------------------   --------------------
FINAL SINGLE POINT ENERGY      -379.376217496217
-------------------------   --------------------

                                *** OPTIMIZATION RUN DONE ***

--------------------------------------------------------------------------
By default, for Open MPI 4.0 and later, infiniband ports on a device
are not used by default.  The intent is to use UCX for these devices.
You can override this policy by setting the btl_openib_allow_ib MCA parameter
to true.

  Local host:              psid00
  Local adapter:           mlx5_0
  Local port:              1

--------------------------------------------------------------------------
--------------------------------------------------------------------------
WARNING: There was an error initializing an OpenFabrics device.

  Local host:   psid00
  Local device: mlx5_0
--------------------------------------------------------------------------


           ************************************************************
           *        Program running with 4 parallel MPI-processes     *
           *              working on a common directory               *
           ************************************************************

------------------------------------------------------------------------------
                              ORCA PROPERTY CALCULATIONS
------------------------------------------------------------------------------

GBWName                                 ... ABN_2.gbw
Number of atoms                         ...     15
Number of basis functions               ...    156
Max core memory                         ...   1024 MB

Electric properties:
Dipole moment                           ... YES
Quadrupole moment                       ...  NO
Static polarizability (Dipole/Dipole)   ...  NO
Static polarizability (Dipole/Quad.)    ...  NO
Static polarizability (Quad./Quad.)     ...  NO
Static polarizability (Velocity)        ...  NO

Atomic electric properties:
Dipole moment                           ...  NO
Quadrupole moment                       ...  NO
Static polarizability                   ...  NO

Choice of electric origin               ... Center of mass
Position of electric origin             ...     0.138264     0.000004     0.000084

General magnetic properties:
Magnetizability                         ...  NO

EPR properties:
g-Tensor (aka g-matrix)                 ...  NO
Zero-Field splitting spin-orbit         ...  NO
Zero-field splitting spin-spin          ...  NO
Hyperfine couplings                     ...  NO (   0 nuclei)
Quadrupole couplings                    ...  NO (   0 nuclei)
Contact density                         ...  NO (   0 nuclei)

NMR properties:
Chemical shifts                         ...  NO (   0 nuclei)
Spin-rotation constants                 ...  NO (   0 nuclei)
Spin-spin couplings                     ...  NO (   0 nuclei,    0 pairs)

Choice of magnetic origin               ... GIAO
Position of magnetic origin             ...     0.000000     0.000000     0.000000

Properties with geometric perturbations:
SCF Hessian                             ...  NO
IR spectrum                             ...  NO
VCD spectrum                            ...  NO
X-ray spectroscopy properties:
SCF XES/XAS/RIXS spectra                ...  NO


-------------
DIPOLE MOMENT
-------------

Method             : SCF
Type of density    : Electron Density
Multiplicity       :   1
Irrep              :   0
Energy             :  -379.3489321869283231 Eh
Relativity type    : 
Basis              : AO
                                X                 Y                 Z
Electronic contribution:     -5.448557719       0.000145673       0.000391882
Nuclear contribution   :      8.315748406      -0.000229175      -0.001781503
                        -----------------------------------------
Total Dipole Moment    :      2.867190687      -0.000083501      -0.001389620
                        -----------------------------------------
Magnitude (a.u.)       :      2.867191025
Magnitude (Debye)      :      7.287820412



--------------------
Rotational spectrum 
--------------------
 
Rotational constants in cm-1:             0.185506             0.032827             0.027891 
Rotational constants in MHz :          5561.318273           984.124696           836.158949 

Dipole components along the rotational axes: 
x,y,z [a.u.] :    -2.867191    -0.000003    -0.001523 
x,y,z [Debye]:    -7.287819    -0.000008    -0.003870 

 

Dipole moment calculation done in   0.0 sec 

Maximum memory used throughout the entire PROP-calculation: 8.1 MB
[psid00:41148] 3 more processes have sent help message help-mpi-btl-openib.txt / ib port not selected
[psid00:41148] Set MCA parameter "orte_base_help_aggregate" to 0 to see all help / error messages
[psid00:41148] 3 more processes have sent help message help-mpi-btl-openib.txt / error in device init
--------------------------------------------------------------------------
By default, for Open MPI 4.0 and later, infiniband ports on a device
are not used by default.  The intent is to use UCX for these devices.
You can override this policy by setting the btl_openib_allow_ib MCA parameter
to true.

  Local host:              psid00
  Local adapter:           mlx5_0
  Local port:              1

--------------------------------------------------------------------------
--------------------------------------------------------------------------
WARNING: There was an error initializing an OpenFabrics device.

  Local host:   psid00
  Local device: mlx5_0
--------------------------------------------------------------------------
[psid00:41164] 3 more processes have sent help message help-mpi-btl-openib.txt / ib port not selected
[psid00:41164] Set MCA parameter "orte_base_help_aggregate" to 0 to see all help / error messages
[psid00:41164] 3 more processes have sent help message help-mpi-btl-openib.txt / error in device init

--------------------------------
SUGGESTED CITATIONS FOR THIS RUN
--------------------------------

Below you find a list of papers that are relevant to this ORCA run
We neither can nor want to force you to cite these papers, but we appreciate if you do
You receive ORCA, which is the product of decades of hard work by many enthusiastic individuals, for free
The only thing we kindly ask in return is that you cite our papers,
We deeply appreciate it, if you show your appreciation for ORCA by not just citing the generic ORCA reference.

Please note that relegating all ORCA citations to the supporting information does *not* help us.
SI sections are not indexed - citations you put there will not count into any citation statistics
But we need these citations in order to attract the funding resources that allow us to do what we are doing

Therefore, if you are a happy ORCA user, please consider citing a few of the papers listed below in the main body of your paper

In addition to the list printed below, the program has created the file ABN_2.bibtex that contains the list in bibtex format
You can import this file easily into all common literature databanks and citation aid programs


List of essential papers. We consider these as the minimum necessary citations

  1. Neese,F.
     Software update: the ORCA program system, version 5.0
     WIRES Comput. Molec. Sci., 2022 12(1)e1606
     doi.org/10.1002/wcms.1606

List of papers to cite with high priority. The work reported in these papers was absolutely
necessary for this run to complete.
Our perspective: the developers of density functionals and basis sets usually get cited in chemistry papers
Good! But without the algorithms to do something with them, the functionals or basis sets would not do anything.
Hence, in our opinion, the algorithm design and method developments papers are equally worthy of getting cited

  1. Neese,F.
     An improvement of the resolution of the identity approximation for the formation of the Coulomb matrix
     J. Comp. Chem., 2003 24(14)1740-1747
     doi.org/10.1002/jcc.10318
  2. Neese,F.; Wennmohs,F.; Hansen,A.; Becker,U.
     Efficient, approximate and parallel Hartree-Fock and hybrid DFT calculations. A 'chain-of-spheres' algorithm for the Hartree-Fock exchange
     Chem. Phys., 2009 356(1-3)98-109
     doi.org/10.1016/j.chemphys.2008.10.036
  3. Helmich-Paris,B.; de Souza,B.; Neese,F.; Izsák,R.
     An improved chain of spheres for exchange algorithm
     J. Chem. Phys., 2021 155 104109
     doi.org/doi: 10.1063/5.0058766.
  4. Neese,F.
     The SHARK Integral Generation and Digestion System
     J. Comp. Chem., 2022  1-16
     doi.org/10.1002/jcc.26942
  5. Grimme,S.; Antony,J.; Ehrlich,S.; Krieg,H.
     A consistent and accurate ab initio parametrization of density functional dispersion correction (DFT-D) for the 94 elements H-Pu
     J. Chem. Phys., 2010 132 154104
     doi.org/10.1063/1.3382344
  6. Grimme,S.; Ehrlich,S.; Goerigk,L.
     Effect of the damping function in dispersion corrected density functional theory
     J. Comput. Chem., 2011 32(7)1456-1465
     doi.org/10.1002/jcc.21759

List of suggested additional citations. These are papers that are important in the 'surrounding' of 
of this run, or papers that preceded the highly important papers. If you like your results we are grateful for a citation.

  1. Izsak,R.; Neese,F.
     An overlap fitted chain of spheres exchange method
     J. Chem. Phys., 2011 135 144105
     doi.org/10.1063/1.3646921
  2. Izsak,R.; Hansen,A.; Neese,F.
     The resolution of identity and chain of spheres approximations for the LPNO-CCSD singles Fock term
     Molec. Phys., 2012 110 2413-2417
     doi.org/10.1080/00268976.2012.687466
  3. Neese,F.
     The ORCA program system
     WIRES Comput. Molec. Sci., 2012 2(1)73-78
     doi.org/10.1002/wcms.81
  4. Izsak,R.; Neese,F.; Klopper,W.
     Robust fitting techniques in the chain of spheres approximation to the Fock exchange: The role of the complementary space
     J. Chem. Phys., 2013 139 
     doi.org/10.1063/1.4819264
  5. Neese,F.
     Software update: the ORCA program system, version 4.0
     WIRES Comput. Molec. Sci., 2018 8(1)1-6
     doi.org/10.1002/wcms.1327
  6. Neese,F.; Wennmohs,F.; Becker,U.; Riplinger,C.
     The ORCA quantum chemistry program package
     J. Chem. Phys., 2020 152 Art. No. L224108
     doi.org/10.1063/5.0004608

List of optional additional citations

  1. Neese,F.
     Approximate second-order SCF convergence for spin unrestricted wavefunctions
     Chem. Phys. Lett., 2000 325(1-3)93-98
     doi.org/10.1016/s0009-2614(00)00662-x

Timings for individual modules:

Sum of individual times          ...       84.068 sec (=   1.401 min)
Startup calculation              ...        6.861 sec (=   0.114 min)   8.2 %
SCF iterations                   ...       45.774 sec (=   0.763 min)  54.4 %
Property calculations            ...        0.386 sec (=   0.006 min)   0.5 %
SCF Gradient evaluation          ...       30.997 sec (=   0.517 min)  36.9 %
Geometry relaxation              ...        0.051 sec (=   0.001 min)   0.1 %
                             ****ORCA TERMINATED NORMALLY****
TOTAL RUN TIME: 0 days 0 hours 1 minutes 26 seconds 331 msec
