
                                 *****************
                                 * O   R   C   A *
                                 *****************

                                            #,                                       
                                            ###                                      
                                            ####                                     
                                            #####                                    
                                            ######                                   
                                           ########,                                 
                                     ,,################,,,,,                         
                               ,,#################################,,                 
                          ,,##########################################,,             
                       ,#########################################, ''#####,          
                    ,#############################################,,   '####,        
                  ,##################################################,,,,####,       
                ,###########''''           ''''###############################       
              ,#####''   ,,,,##########,,,,          '''####'''          '####       
            ,##' ,,,,###########################,,,                        '##       
           ' ,,###''''                  '''############,,,                           
         ,,##''                                '''############,,,,        ,,,,,,###''
      ,#''                                            '''#######################'''  
     '                                                          ''''####''''         
             ,#######,   #######,   ,#######,      ##                                
            ,#'     '#,  ##    ##  ,#'     '#,    #''#        ,####,   ,####,        
            ##       ##  ##   ,#'  ##            #'  '#       #'       #'  '#        
            ##       ##  #######   ##           ,######,      #####,   #    #        
            '#,     ,#'  ##    ##  '#,     ,#' ,#      #,     #,   #   #,  ,#        
             '#######'   ##     ##  '#######'  #'      '#     '####' # '####'        



                #########################################################
                #                        -***-                          #
                #          Department of theory and spectroscopy        #
                #                                                       #
                #                      Frank Neese                      #
                #                                                       #
                #     Directorship, Architecture, Infrastructure        #
                #                    SHARK, DRIVERS                     #
                #        Core code/Algorithms in most modules           #
                #                                                       #
                #        Max Planck Institute fuer Kohlenforschung      #
                #                Kaiser Wilhelm Platz 1                 #
                #                 D-45470 Muelheim/Ruhr                 #
                #                      Germany                          #
                #                                                       #
                #                  All rights reserved                  #
                #                        -***-                          #
                #########################################################


                         Program Version 6.0.1  -  RELEASE   -


 With contributions from (in alphabetic order):
[Max-Planck-Institut fuer Kohlenforschung]                               
  Daniel Aravena         : Magnetic Suceptibility                        
  Michael Atanasov       : Ab Initio Ligand Field Theory (pilot matlab implementation)
  Alexander A. Auer      : GIAO ZORA, VPT2 properties, NMR spectrum      
  Ute Becker             : All parallelization in ORCA, NUMFREQ, NUMCALC 
  Giovanni Bistoni       : ED, misc. LED, open-shell LED, HFLD           
  Martin Brehm           : Molecular dynamics                            
  Dmytro Bykov           : pre 5.0 version of the SCF Hessian            
  Marcos Casanova-Páez   : Triplet and SCS-CIS(D). UHF-(DLPNO)-IP/EA/STEOM-CCSD. UHF-CVS-IP/STEOM-CCSD   
  Vijay G. Chilkuri      : MRCI spin determinant printing, contributions to CSF-ICE 
  Pauline Colinet        : FMM embedding                                 
  Dipayan Datta          : RHF DLPNO-CCSD density                        
  Achintya Kumar Dutta   : EOM-CC, STEOM-CC                              
  Nicolas Foglia         : Exact transition moments, OPA infrastructure, MCD improvements    
  Dmitry Ganyushin       : Spin-Orbit,Spin-Spin,Magnetic field MRCI      
  Miquel Garcia-Rates    : C-PCM and meta-GGA Hessian, CCSD/C-PCM, Gaussian charge scheme 
  Tiago L. C. Gouveia    : GS-ROHF, GS-ROCIS                             
  Yang Guo               : DLPNO-NEVPT2, F12-NEVPT2, CIM, IAO-localization        
  Andreas Hansen         : Spin unrestricted coupled pair/coupled cluster methods 
  Ingolf Harden          : AUTO-CI MPn and infrastructure                
  Benjamin Helmich-Paris : MC-RPA, TRAH-(SCF,CASSCF), AVAS, COSX integrals, SCF dyn. polar. 
  Lee Huntington         : MR-EOM, pCC                                   
  Robert Izsak           : Overlap fitted RIJCOSX, COSX-SCS-MP3, EOM     
  Riya Kayal             : Wick's Theorem for AUTO-CI, AUTO-CI UHF-CCSDT 
  Emily Kempfer          : AUTO-CI, RHF CISDT and CCSDT                  
  Christian Kollmar      : KDIIS, OOCD, Brueckner-CCSD(T), CCSD density, CASPT2, CASPT2-K, improved NEVPT2 
  Axel Koslowski         : Symmetry handling                             
  Simone Kossmann        : meta-GGA functionals, TD-DFT gradient, OOMP2, (MP2 Hessian; deprecated post 5.0) 
  Lucas Lang             : DCDCAS                                        
  Marvin Lechner         : AUTO-CI (C++ implementation), FIC-MRCC        
  Spencer Leger          : CASSCF response                               
  Dagmar Lenk            : GEPOL surface, SMD, ORCA-2-JSON               
  Dimitrios Liakos       : Extrapolation schemes; Compound Job, initial MDCI parallelization 
  Dimitrios Manganas     : Further ROCIS development; embedding schemes. LFT, Crystal Embedding 
  Dimitrios Pantazis     : SARC Basis sets                               
  Anastasios Papadopoulos: AUTO-CI, single reference methods and gradients 
  Taras Petrenko         : pre 6.0 DFT Hessian and TD-DFT gradient, (ASA, deprecated), ECA, 1-Electron XAS/XES, NRVS 
  Peter Pinski           : DLPNO-MP2, DLPNO-MP2 Gradient                 
  Christoph Reimann      : Effective Core Potentials                     
  Marius Retegan         : Local ZFS, SOC                                
  Christoph Riplinger    : Optimizer, TS searches, QM/MM, DLPNO-CCSD(T), (RO)-DLPNO pert. Triples 
  Michael Roemelt        : Original ROCIS implementation                 
  Masaaki Saitow         : Open-shell DLPNO-CCSD energy and density      
  Barbara Sandhoefer     : DKH picture change effects                    
  Kantharuban Sivalingam : CASSCF convergence/infrastructure, NEVPT2 and variants, FIC-MRCI 
  Bernardo de Souza      : ESD, SOC TD-DFT                               
  Georgi L. Stoychev     : AutoAux, RI-MP2 NMR, DLPNO-MP2 response, X2C  
  Van Anh Tran           : RI-MP2 g-tensors                              
  Willem Van den Heuvel  : Paramagnetic NMR                              
  Zikuan Wang            : NOTCH, Electric field optimization            
  Frank Wennmohs         : Technical directorship and infrastructure     
  Hang Xu                : AUTO-CI-Response properties                   
                                                                         
[FACCTs GmbH]                                                            
  Markus Bursch, Miquel Garcia-Rates, Christoph Riplinger, Bernardo de Souza, Georgi L. Stoychev 
                                                                 
  APM, Basis sets (HGBS, AHGBS, def-TZVP (Ac-Lr), def2-XVPD (La-Lu)), CI-OPT, improved COSX, DLPNO-Multilevel,           
  DOCKER, DRACO, updates on ESD, GOAT, IRC, LR-CPCM, MBIS, meta-GGA TD-DFT gradient, ML-optimized integration grids, 
  MM, NACMEs, nearIR, NEB, NEB-TS, NL-DFT gradient (VV10), 2- and 3-layer-ONIOM, interface openCOSMO-RS, QMMM,   
  Crystal-QMMM, SF, symmetry and pop. for TD-DFT, r2SCAN hybrids, SOLVATOR                                   
                                                                         
[Other institutions]                                                     
  V. Asgeirsson          : NEB                                           
  Christoph Bannwarth    : sTDA-DFT, sTD-DFT, PBEh-3c, B97-3c, D3        
  Sebastian Ehlert       : rSCAN, r2SCAN, r2SCAN-3c, D4, dhf basis sets  
  Marvin Friede          : D4 for Fr, Ra, Ac-Lr                          
  Lars Goerigk           : TD-DFT with DH, B97 family of functionals     
  Stefan Grimme          : VdW corrections, initial TS optimization, DFT functionals, gCP, sTDA/sTD-DF 
  Waldemar Hujo          : DFT-NL                                        
  H. Jonsson             : NEB                                           
  Holger Kruse           : gCP                                           
  Marcel Mueller         : wB97X-3c, vDZP basis set                      
  Hagen Neugebauer       : wr2SCAN                                       
  Tobias Risthaus        : range-separated hybrid DFT                    
  Lukas Wittmann         : regularized MP2, r2SCAN double-hybrids, wr2SCAN        
                                                                         
We gratefully acknowledge several colleagues who have allowed us to      
interface, adapt or use parts of their codes:                            
  Ed Valeev, F. Pavosevic, A. Kumar             : LibInt (2-el integral package), F12 methods 
  Garnet Chan, S. Sharma, J. Yang, R. Olivares  : DMRG                   
  Ulf Ekstrom                                   : XCFun DFT Library      
  Mihaly Kallay                                 : mrcc  (arbitrary order and MRCC methods)
  Frank Weinhold                                : gennbo (NPA and NBO analysis)           
  Simon Mueller                                 : openCOSMO-RS                            
  Christopher J. Cramer and Donald G. Truhlar   : smd solvation model                     
  S Lehtola, MJT Oliveira, MAL Marques          : LibXC Library                           
  Liviu Ungur et al                             : ANISO software                          


 Your calculation uses the libint2 library for the computation of 2-el integrals
 For citations please refer to: http://libint.valeyev.net

 Your ORCA version has been built with support for libXC version: 6.2.2
 For citations please refer to: https://libxc.gitlab.io

 This ORCA versions uses:
   CBLAS   interface :  Fast vector & matrix operations
   LAPACKE interface :  Fast linear algebra routines
   SCALAPACK package :  Parallel linear algebra routines
   Shared memory     :  Shared parallel matrices
   BLAS/LAPACK       :  OpenBLAS 0.3.27  USE64BITINT DYNAMIC_ARCH NO_AFFINITY SkylakeX SINGLE_THREADED
        Core in use  :  SkylakeX
   Copyright (c) 2011-2014, The OpenBLAS Project


NOTE: MaxCore=3500 MB was set to SCF,MP2,MDCI,CIPSI,MRCI and CIS
      => If you want to overwrite this, your respective input block should be placed after the MaxCore statement
Your calculation utilizes the atom-pairwise dispersion correction
with the zero-damping scheme (D30)


XCFun DFT library Copyright 2009-2010 Ulf Ekstrom and contributors.
See http://admol.org/xcfun for more information.
This is free software; see the source code for copying conditions.
There is ABSOLUTELY NO WARRANTY; not even for MERCHANTABILITY or FITNESS FOR A PARTICULAR PURPOSE.
For details see the documentation.
Scientific users of this library should cite U. Ekstrom, L. Visscher, R. Bast, A. J. Thorvaldsen and K. Ruud;
J.Chem.Theor.Comp. 2010, DOI: 10.1021/ct100117s
XCFun Version 0.99 

Warning: RI is on but no J-basis has been assigned. Assigning Def2/J (nothing to worry about!)
================================================================================

----- Orbital basis set information -----
Your calculation utilizes the basis: def2-SVP
   F. Weigend and R. Ahlrichs, Phys. Chem. Chem. Phys. 7, 3297 (2005).

----- AuxJ basis set information -----
Your calculation utilizes the auxiliary basis: def2/J
   F. Weigend, Phys. Chem. Chem. Phys. 8, 1057 (2006).

================================================================================
                                        WARNINGS
                       Please study these warnings very carefully!
================================================================================


WARNING: Gradients are needed
  ===> : At least TightSCF should be used for SCF convergence

WARNING: your system is open-shell and RHF/RKS was chosen
  ===> : WILL SWITCH to UHF/UKS


WARNING: Geometry Optimization
  ===> : Switching off AutoStart
         For restart on a previous wavefunction, please use MOREAD

WARNING: TRAH does not support fractional occupations!
  ===> : Turning TRAH off

WARNING: Smearing is incompatible with SOSCF, disabling SOSCF
================================================================================
                                       INPUT FILE
================================================================================
NAME = c60_o2_17.inp
|  1> ! wB97X-D3 def2-SVP OPT NormalSCF
|  2> 
|  3> %pal
|  4> nprocs 28
|  5> end
|  6> 
|  7> %maxcore 3500
|  8> 
|  9> %scf
| 10>  SmearTemp 500 
| 11> end
| 12> 
| 13> 
| 14> * xyz -1 2
| 15> C 3.36385 -1.99584 0.386459
| 16> C 3.66055 -0.572846 0.435208
| 17> C 3.24083 0.192357 1.52993
| 18> C 2.65579 -2.60009 1.43241
| 19> C 3.06154 -2.34719 -0.994117
| 20> C 3.52891 -0.044316 -0.915537
| 21> C 2.68634 1.51935 1.31925
| 22> C 2.49219 -0.434311 2.60563
| 23> C 1.61945 -3.57839 1.13966
| 24> C 2.20962 -1.80097 2.56343
| 25> C 2.06732 -3.28952 -1.27468
| 26> C 3.1625 -1.13814 -1.79683
| 27> C 2.96525 1.21888 -1.11221
| 28> C 1.58281 1.70918 2.24615
| 29> C 2.55208 2.00834 0.021757
| 30> C 1.46576 0.505387 3.03265
| 31> C 1.33369 -3.91928 -0.186634
| 32> C 0.534464 -3.38568 2.09143
| 33> C 0.894996 -2.28044 2.96586
| 34> C 1.13794 -3.06222 -2.37168
| 35> C 2.2599 -0.909713 -2.83933
| 36> C 2.00935 1.46506 -2.17527
| 37> C 0.467253 2.47722 1.87801
| 38> C 1.41956 2.82564 -0.343398
| 39> C 0.201739 0.05572 3.3997
| 40> C -0.047186 -4.08725 -0.613747
| 41> C -0.793056 -3.54695 1.68045
| 42> C -0.084585 -1.37201 3.38264
| 43> C -0.16724 -3.56163 -1.96546
| 44> C 1.23252 -1.89436 -3.1382
| 45> C 1.68026 0.413826 -3.03167
| 46> C 1.00726 2.43337 -1.70273
| 47> C 0.575612 3.29583 0.669034
| 48> C -0.886608 1.96651 2.18929
| 49> C -0.98028 0.783077 2.96108
| 50> C -1.08994 -3.90896 0.301612
| 51> C -1.81255 -2.61139 2.1291
| 52> C -1.45958 -1.53957 2.95751
| 53> C -1.32709 -2.88258 -2.35126
| 54> C 0.026716 -1.18089 -3.52921
| 55> C 0.306923 0.247335 -3.45636
| 56> C -0.337138 2.27445 -2.12066
| 57> C -1.50375 3.04089 0.03062
| 58> C -1.90782 2.18383 1.14331
| 59> C -2.01309 -0.214793 2.71689
| 60> C -2.29806 -3.2046 -0.099515
| 61> C -2.74662 -2.40642 1.03165
| 62> C -2.41515 -2.70095 -1.40056
| 63> C -1.22687 -1.67322 -3.15453
| 64> C -0.665071 1.14123 -3.00315
| 65> C -1.51406 2.47096 -1.24894
| 66> C -2.83731 1.16909 0.878878
| 67> C -2.91733 -0.030678 1.67699
| 68> C -3.29656 -1.14096 0.816219
| 69> C -2.99147 -1.38385 -1.62202
| 70> C -2.2503 -0.749007 -2.70221
| 71> C -1.96738 0.618334 -2.63686
| 72> C -2.44353 1.40099 -1.52375
| 73> C -3.16361 0.805672 -0.48959
| 74> C -3.43391 -0.621621 -0.534234
| 75> H 1.01079 5.70594 4.39439
| 76> C -0.025016 6.07921 4.37886
| 77> H -0.14197 6.8071 5.19798
| 78> H 0.317939 7.60819 2.86708
| 79> C -0.341423 6.74847 3.05268
| 80> O -0.093766 5.86121 1.93801
| 81> H -0.708809 5.23855 4.56885
| 82> C -1.06594 5.01385 1.58305
| 83> C -0.593688 4.18199 0.364946
| 84> O -2.14368 4.9339 2.10853
| 85> H -1.38979 7.07988 3.01259
| 86> C -0.375757 5.20146 -0.774825
| 87> H -3.62271 6.46433 -2.59559
| 88> O -1.546 5.77178 -1.08241
| 89> H -1.12736 6.33894 -3.0339
| 90> O 0.675863 5.47844 -1.28485
| 91> C -1.53396 6.78416 -2.1116
| 92> C -2.95187 7.28287 -2.29224
| 93> H -2.97708 8.05869 -3.07354
| 94> H -3.33996 7.71875 -1.3586
| 95> H -0.84376 7.58709 -1.80568
| 96> O -1.19457 7.94306 -5.16555
| 97> O -1.65527 8.97487 -4.78019
| 98> *
| 99> 
|100>                          ****END OF INPUT****
================================================================================

                       *****************************
                       * Geometry Optimization Run *
                       *****************************

Geometry optimization settings:
Update method            Update   .... BFGS
Choice of coordinates    CoordSys .... (2022) Redundant Internals
Initial Hessian          InHess   .... Almloef's Model
Max. no of cycles        MaxIter  .... 249

Convergence Tolerances:
Energy Change            TolE     ....  5.0000e-06 Eh
Max. Gradient            TolMAXG  ....  3.0000e-04 Eh/bohr
RMS Gradient             TolRMSG  ....  1.0000e-04 Eh/bohr
Max. Displacement        TolMAXD  ....  4.0000e-03 bohr
RMS Displacement         TolRMSD  ....  2.0000e-03 bohr
Strict Convergence                .... False

------------------------------------------------------------------------------
                        ORCA OPTIMIZATION COORDINATE SETUP
------------------------------------------------------------------------------

The optimization will be done in redundant internal coordinates (2022)
Making redundant internal coordinates   ...  (2022 redundants) done
Evaluating the initial hessian          ...  (Almloef) done
Evaluating the coordinates              ...  done
Calculating the B-matrix                .... done
Calculating the G-matrix                .... done
Diagonalizing the G-matrix              .... done
Small eigenvalue found = 1.760e-03
Small eigenvalue found = 3.536e-03
Small eigenvalue found = 4.281e-03
Small eigenvalue found = 5.456e-03
Small eigenvalue found = 1.857e-02
Small eigenvalue found = 2.375e-02
Small eigenvalue found = 2.903e-02
The first mode is                       ....  512
The number of degrees of freedom        ....  243

    -----------------------------------------------------------------
                    Redundant Internal Coordinates


    -----------------------------------------------------------------
         Definition                    Initial Value    Approx d2E/dq
    -----------------------------------------------------------------
      1. B(C   1,C   0)                  1.4544         0.493140   
      2. B(C   2,C   1)                  1.4000         0.602168   
      3. B(C   3,C   0)                  1.4002         0.601881   
      4. B(C   4,C   0)                  1.4563         0.489724   
      5. B(C   5,C   1)                  1.4564         0.489503   
      6. B(C   6,C   2)                  1.4535         0.494740   
      7. B(C   7,C   2)                  1.4527         0.496275   
      8. B(C   8,C   3)                  1.4549         0.492235   
      9. B(C   9,C   3)                  1.4549         0.492178   
     10. B(C   9,C   7)                  1.3962         0.610719   
     11. B(C  10,C   4)                  1.3983         0.606087   
     12. B(C  11,C   4)                  1.4548         0.492503   
     13. B(C  11,C   5)                  1.4517         0.498112   
     14. B(C  12,C   5)                  1.3972         0.608576   
     15. B(C  13,C   6)                  1.4536         0.494614   
     16. B(C  14,C  12)                  1.4422         0.515839   
     17. B(C  14,C   6)                  1.3931         0.617805   
     18. B(C  15,C  13)                  1.4427         0.514813   
     19. B(C  15,C   7)                  1.4557         0.490893   
     20. B(C  16,C  10)                  1.4556         0.491068   
     21. B(C  16,C   8)                  1.3989         0.604699   
     22. B(C  17,C   8)                  1.4561         0.490113   
     23. B(C  18,C  17)                  1.4547         0.492613   
     24. B(C  18,C   9)                  1.4560         0.490187   
     25. B(C  19,C  10)                  1.4556         0.490965   
     26. B(C  20,C  11)                  1.3977         0.607285   
     27. B(C  21,C  12)                  1.4507         0.499968   
     28. B(C  22,C  13)                  1.4035         0.594513   
     29. B(C  23,C  14)                  1.4436         0.513165   
     30. B(C  24,C  15)                  1.3909         0.622675   
     31. B(C  25,C  16)                  1.4551         0.491811   
     32. B(C  26,C  17)                  1.3990         0.604460   
     33. B(C  27,C  24)                  1.4563         0.489812   
     34. B(C  27,C  18)                  1.3995         0.603423   
     35. B(C  28,C  25)                  1.4553         0.491587   
     36. B(C  28,C  19)                  1.4553         0.491524   
     37. B(C  29,C  20)                  1.4541         0.493737   
     38. B(C  29,C  19)                  1.4001         0.601948   
     39. B(C  30,C  21)                  1.3953         0.612788   
     40. B(C  30,C  20)                  1.4576         0.487319   
     41. B(C  31,C  23)                  1.4737         0.459491   
     42. B(C  31,C  21)                  1.4714         0.463259   
     43. B(C  32,C  23)                  1.3994         0.603569   
     44. B(C  32,C  22)                  1.4641         0.475962   
     45. B(C  33,C  22)                  1.4801         0.448755   
     46. B(C  34,C  33)                  1.4160         0.567960   
     47. B(C  34,C  24)                  1.4555         0.491099   
     48. B(C  35,C  26)                  1.4562         0.489997   
     49. B(C  35,C  25)                  1.3989         0.604632   
     50. B(C  36,C  26)                  1.4546         0.492762   
     51. B(C  37,C  36)                  1.3999         0.602538   
     52. B(C  37,C  27)                  1.4489         0.503160   
     53. B(C  38,C  28)                  1.3983         0.606065   
     54. B(C  39,C  29)                  1.4546         0.492784   
     55. B(C  40,C  39)                  1.4573         0.487984   
     56. B(C  40,C  30)                  1.4471         0.506546   
     57. B(C  41,C  31)                  1.4168         0.566211   
     58. B(C  43,C  42)                  1.4615         0.480516   
     59. B(C  43,C  33)                  1.4779         0.452383   
     60. B(C  44,C  37)                  1.4558         0.490665   
     61. B(C  44,C  34)                  1.4567         0.488957   
     62. B(C  45,C  35)                  1.4548         0.492356   
     63. B(C  46,C  36)                  1.4556         0.490919   
     64. B(C  46,C  45)                  1.4553         0.491579   
     65. B(C  47,C  45)                  1.4000         0.602188   
     66. B(C  47,C  38)                  1.4563         0.489806   
     67. B(C  48,C  39)                  1.3979         0.606823   
     68. B(C  48,C  38)                  1.4553         0.491574   
     69. B(C  49,C  41)                  1.4733         0.460141   
     70. B(C  49,C  40)                  1.3961         0.610851   
     71. B(C  50,C  42)                  1.4008         0.600525   
     72. B(C  50,C  41)                  1.4777         0.452675   
     73. B(C  51,C  43)                  1.4013         0.599445   
     74. B(C  52,C  51)                  1.4432         0.513878   
     75. B(C  52,C  44)                  1.3903         0.624103   
     76. B(C  53,C  52)                  1.4552         0.491804   
     77. B(C  53,C  46)                  1.3965         0.610037   
     78. B(C  54,C  47)                  1.4546         0.492753   
     79. B(C  55,C  54)                  1.4557         0.490750   
     80. B(C  55,C  48)                  1.4513         0.498877   
     81. B(C  56,C  55)                  1.3978         0.607075   
     82. B(C  56,C  49)                  1.4504         0.500505   
     83. B(C  57,C  56)                  1.4416         0.516861   
     84. B(C  57,C  50)                  1.4437         0.512936   
     85. B(C  58,C  57)                  1.3937         0.616357   
     86. B(C  58,C  51)                  1.4530         0.495683   
     87. B(C  59,C  58)                  1.4533         0.495075   
     88. B(C  59,C  54)                  1.4000         0.602241   
     89. B(C  59,C  53)                  1.4534         0.495024   
     90. B(C  61,H  60)                  1.1011         0.345686   
     91. B(H  62,C  61)                  1.1020         0.344538   
     92. B(C  64,H  63)                  1.0992         0.348084   
     93. B(C  64,C  61)                  1.5188         0.389255   
     94. B(O  65,C  64)                  1.4460         0.455465   
     95. B(H  66,C  61)                  1.1002         0.346892   
     96. B(C  67,O  65)                  1.3376         0.678419   
     97. B(C  68,C  67)                  1.5488         0.348641   
     98. B(C  68,C  42)                  1.4974         0.421161   
     99. B(C  68,C  32)                  1.4983         0.419657   
    100. B(O  69,C  67)                  1.2017         1.117690   
    101. B(H  70,C  64)                  1.1002         0.346814   
    102. B(C  71,C  68)                  1.5446         0.354023   
    103. B(O  73,C  71)                  1.3377         0.678228   
    104. B(H  74,O  73)                  2.0749         0.008654   
    105. B(O  75,C  71)                  1.2011         1.119908   
    106. B(C  76,H  74)                  1.1019         0.344698   
    107. B(C  76,O  73)                  1.4437         0.459398   
    108. B(C  77,C  76)                  1.5139         0.396376   
    109. B(C  77,H  72)                  1.1009         0.345923   
    110. B(H  78,C  77)                  1.1013         0.345400   
    111. B(H  79,C  77)                  1.1010         0.345788   
    112. B(H  80,C  76)                  1.1021         0.344424   
    113. B(O  81,H  78)                  2.7509         0.000722   
    114. B(O  81,H  74)                  2.6686         0.000977   
    115. B(O  82,H  78)                  2.3450         0.003208   
    116. B(O  82,O  81)                  1.1939         1.030125   
    117. A(C   1,C   0,C   3)          120.0235         0.414450   
    118. A(C   3,C   0,C   4)          119.9390         0.413938   
    119. A(C   1,C   0,C   4)          108.0696         0.399608   
    120. A(C   0,C   1,C   2)          119.9868         0.414485   
    121. A(C   2,C   1,C   5)          119.9830         0.413940   
    122. A(C   0,C   1,C   5)          107.7901         0.399577   
    123. A(C   1,C   2,C   6)          120.0003         0.414724   
    124. A(C   1,C   2,C   7)          119.8495         0.414952   
    125. A(C   6,C   2,C   7)          107.7320         0.400773   
    126. A(C   0,C   3,C   9)          119.9173         0.414306   
    127. A(C   0,C   3,C   8)          120.0053         0.414314   
    128. A(C   8,C   3,C   9)          107.8967         0.399831   
    129. A(C  10,C   4,C  11)          119.9157         0.414868   
    130. A(C   0,C   4,C  11)          107.9490         0.399518   
    131. A(C   0,C   4,C  10)          120.0270         0.414451   
    132. A(C   1,C   5,C  11)          108.2045         0.400283   
    133. A(C   1,C   5,C  12)          119.6773         0.414719   
    134. A(C  11,C   5,C  12)          119.6009         0.416007   
    135. A(C   2,C   6,C  13)          108.4457         0.400536   
    136. A(C   2,C   6,C  14)          119.4869         0.416619   
    137. A(C  13,C   6,C  14)          118.3531         0.416600   
    138. A(C   2,C   7,C   9)          120.2765         0.415994   
    139. A(C   9,C   7,C  15)          119.8709         0.415188   
    140. A(C   2,C   7,C  15)          107.5857         0.400222   
    141. A(C   3,C   8,C  17)          108.0742         0.399535   
    142. A(C   3,C   8,C  16)          120.0088         0.414659   
    143. A(C  16,C   8,C  17)          119.9842         0.414340   
    144. A(C   3,C   9,C  18)          108.1111         0.399538   
    145. A(C   7,C   9,C  18)          119.7820         0.415082   
    146. A(C   3,C   9,C   7)          119.9375         0.415381   
    147. A(C   4,C  10,C  16)          119.9977         0.414653   
    148. A(C  16,C  10,C  19)          108.0052         0.399490   
    149. A(C   4,C  10,C  19)          119.9973         0.414637   
    150. A(C   4,C  11,C   5)          107.9845         0.400714   
    151. A(C   5,C  11,C  20)          119.5145         0.415850   
    152. A(C   4,C  11,C  20)          120.1690         0.415014   
    153. A(C   5,C  12,C  21)          121.4947         0.416283   
    154. A(C  14,C  12,C  21)          107.1290         0.404262   
    155. A(C   5,C  12,C  14)          119.9882         0.418606   
    156. A(C   6,C  13,C  15)          107.4726         0.403353   
    157. A(C  15,C  13,C  22)          122.3513         0.416719   
    158. A(C   6,C  13,C  22)          120.5051         0.413763   
    159. A(C   6,C  14,C  12)          120.8364         0.419730   
    160. A(C   6,C  14,C  23)          120.6599         0.419342   
    161. A(C  12,C  14,C  23)          109.6206         0.406127   
    162. A(C   7,C  15,C  24)          120.6314         0.416622   
    163. A(C   7,C  15,C  13)          108.7545         0.402816   
    164. A(C  13,C  15,C  24)          119.1659         0.420170   
    165. A(C  10,C  16,C  25)          107.9886         0.399611   
    166. A(C   8,C  16,C  25)          120.0173         0.414595   
    167. A(C   8,C  16,C  10)          120.0213         0.414484   
    168. A(C  18,C  17,C  26)          119.9564         0.414686   
    169. A(C   8,C  17,C  26)          119.9858         0.414311   
    170. A(C   8,C  17,C  18)          107.9864         0.399589   
    171. A(C   9,C  18,C  27)          120.0354         0.414196   
    172. A(C  17,C  18,C  27)          119.9154         0.414560   
    173. A(C   9,C  18,C  17)          107.9278         0.399600   
    174. A(C  10,C  19,C  29)          119.9802         0.414132   
    175. A(C  10,C  19,C  28)          107.9789         0.399556   
    176. A(C  28,C  19,C  29)          119.9754         0.414216   
    177. A(C  29,C  20,C  30)          107.8650         0.399347   
    178. A(C  11,C  20,C  30)          120.2382         0.414234   
    179. A(C  11,C  20,C  29)          119.9268         0.415198   
    180. A(C  30,C  21,C  31)          122.1604         0.411185   
    181. A(C  12,C  21,C  31)          108.9714         0.396683   
    182. A(C  12,C  21,C  30)          118.5120         0.416794   
    183. A(C  32,C  22,C  33)          115.7408         0.391093   
    184. A(C  13,C  22,C  33)          118.8851         0.406689   
    185. A(C  13,C  22,C  32)          117.6287         0.410950   
    186. A(C  31,C  23,C  32)          126.0191         0.409488   
    187. A(C  14,C  23,C  32)          118.7082         0.417603   
    188. A(C  14,C  23,C  31)          107.5848         0.397932   
    189. A(C  15,C  24,C  27)          119.5076         0.416459   
    190. A(C  27,C  24,C  34)          109.0703         0.399330   
    191. A(C  15,C  24,C  34)          119.7962         0.416654   
    192. A(C  16,C  25,C  28)          108.0125         0.399686   
    193. A(C  28,C  25,C  35)          120.0160         0.414553   
    194. A(C  16,C  25,C  35)          120.0383         0.414587   
    195. A(C  35,C  26,C  36)          108.0023         0.399594   
    196. A(C  17,C  26,C  36)          120.0202         0.414708   
    197. A(C  17,C  26,C  35)          120.0192         0.414294   
    198. A(C  18,C  27,C  24)          120.1503         0.414140   
    199. A(C  24,C  27,C  37)          107.6618         0.401038   
    200. A(C  18,C  27,C  37)          120.1188         0.416124   
    201. A(C  19,C  28,C  25)          108.0126         0.399645   
    202. A(C  25,C  28,C  38)          120.0070         0.414728   
    203. A(C  19,C  28,C  38)          120.0163         0.414718   
    204. A(C  20,C  29,C  39)          107.9873         0.400132   
    205. A(C  19,C  29,C  39)          120.0187         0.414405   
    206. A(C  19,C  29,C  20)          120.0015         0.414547   
    207. A(C  21,C  30,C  40)          119.3830         0.417765   
    208. A(C  20,C  30,C  40)          108.1581         0.401152   
    209. A(C  20,C  30,C  21)          120.6187         0.414898   
    210. A(C  23,C  31,C  41)          124.5718         0.404887   
    211. A(C  21,C  31,C  41)          118.5341         0.405471   
    212. A(C  21,C  31,C  23)          106.3117         0.390860   
    213. A(C  23,C  32,C  68)          121.5018         0.402978   
    214. A(C  22,C  32,C  68)          116.1370         0.386544   
    215. A(C  22,C  32,C  23)          117.0127         0.412053   
    216. A(C  34,C  33,C  43)          117.5780         0.403994   
    217. A(C  22,C  33,C  43)          115.6246         0.387639   
    218. A(C  22,C  33,C  34)          117.6155         0.403421   
    219. A(C  24,C  34,C  44)          106.4970         0.399207   
    220. A(C  33,C  34,C  44)          121.8737         0.409586   
    221. A(C  24,C  34,C  33)          121.8827         0.409903   
    222. A(C  26,C  35,C  45)          108.0605         0.399536   
    223. A(C  25,C  35,C  45)          120.0183         0.414669   
    224. A(C  25,C  35,C  26)          119.9535         0.414315   
    225. A(C  37,C  36,C  46)          120.0093         0.414198   
    226. A(C  26,C  36,C  46)          107.9247         0.399726   
    227. A(C  26,C  36,C  37)          119.8838         0.414474   
    228. A(C  36,C  37,C  44)          120.2035         0.414160   
    229. A(C  27,C  37,C  44)          107.7023         0.401161   
    230. A(C  27,C  37,C  36)          120.0960         0.416015   
    231. A(C  47,C  38,C  48)          107.9480         0.399397   
    232. A(C  28,C  38,C  48)          119.9165         0.414726   
    233. A(C  28,C  38,C  47)          120.0133         0.414460   
    234. A(C  40,C  39,C  48)          120.2774         0.414278   
    235. A(C  29,C  39,C  48)          119.9050         0.414999   
    236. A(C  29,C  39,C  40)          107.9316         0.399308   
    237. A(C  30,C  40,C  39)          108.0536         0.401248   
    238. A(C  39,C  40,C  49)          120.6544         0.414765   
    239. A(C  30,C  40,C  49)          119.4575         0.417530   
    240. A(C  49,C  41,C  50)          106.1626         0.389381   
    241. A(C  31,C  41,C  50)          124.5284         0.403820   
    242. A(C  31,C  41,C  49)          118.3064         0.404988   
    243. A(C  50,C  42,C  68)          121.2309         0.402872   
    244. A(C  43,C  42,C  68)          116.4204         0.387427   
    245. A(C  43,C  42,C  50)          117.0537         0.412380   
    246. A(C  33,C  43,C  42)          115.7237         0.392297   
    247. A(C  42,C  43,C  51)          117.6709         0.412248   
    248. A(C  33,C  43,C  51)          119.0399         0.407864   
    249. A(C  34,C  44,C  37)          109.0314         0.399145   
    250. A(C  37,C  44,C  52)          119.4344         0.416758   
    251. A(C  34,C  44,C  52)          119.7217         0.416499   
    252. A(C  46,C  45,C  47)          119.9498         0.414254   
    253. A(C  35,C  45,C  47)          119.9895         0.414370   
    254. A(C  35,C  45,C  46)          107.8898         0.399762   
    255. A(C  36,C  46,C  45)          108.1194         0.399557   
    256. A(C  45,C  46,C  53)          119.8993         0.415208   
    257. A(C  36,C  46,C  53)          119.7751         0.415109   
    258. A(C  38,C  47,C  45)          119.9552         0.413988   
    259. A(C  45,C  47,C  54)          120.0229         0.414429   
    260. A(C  38,C  47,C  54)          108.0329         0.399565   
    261. A(C  38,C  48,C  39)          120.1565         0.414818   
    262. A(C  39,C  48,C  55)          119.4478         0.415907   
    263. A(C  38,C  48,C  55)          107.9760         0.400689   
    264. A(C  41,C  49,C  56)          109.0200         0.396288   
    265. A(C  40,C  49,C  56)          118.4424         0.416639   
    266. A(C  40,C  49,C  41)          122.1379         0.410462   
    267. A(C  42,C  50,C  57)          118.6956         0.417194   
    268. A(C  41,C  50,C  57)          107.5725         0.396857   
    269. A(C  41,C  50,C  42)          125.9516         0.408041   
    270. A(C  52,C  51,C  58)          107.4853         0.403377   
    271. A(C  43,C  51,C  58)          120.5179         0.414530   
    272. A(C  43,C  51,C  52)          122.3051         0.417197   
    273. A(C  51,C  52,C  53)          108.7612         0.402819   
    274. A(C  44,C  52,C  53)          120.7241         0.416930   
    275. A(C  44,C  52,C  51)          119.1873         0.420205   
    276. A(C  52,C  53,C  59)          107.5553         0.400175   
    277. A(C  46,C  53,C  59)          120.2886         0.415725   
    278. A(C  46,C  53,C  52)          119.8361         0.415242   
    279. A(C  55,C  54,C  59)          120.0007         0.414136   
    280. A(C  47,C  54,C  59)          119.9926         0.414436   
    281. A(C  47,C  54,C  55)          107.8254         0.399700   
    282. A(C  54,C  55,C  56)          119.6660         0.414725   
    283. A(C  48,C  55,C  56)          119.6553         0.415938   
    284. A(C  48,C  55,C  54)          108.2154         0.400570   
    285. A(C  55,C  56,C  57)          120.0201         0.418569   
    286. A(C  49,C  56,C  57)          107.2078         0.404480   
    287. A(C  49,C  56,C  55)          121.5061         0.416179   
    288. A(C  56,C  57,C  58)          120.7760         0.419703   
    289. A(C  50,C  57,C  58)          120.5283         0.419133   
    290. A(C  50,C  57,C  56)          109.6754         0.406237   
    291. A(C  57,C  58,C  59)          119.5241         0.416495   
    292. A(C  51,C  58,C  59)          108.4409         0.400736   
    293. A(C  51,C  58,C  57)          118.4235         0.416586   
    294. A(C  54,C  59,C  58)          119.9852         0.414782   
    295. A(C  53,C  59,C  58)          107.7466         0.400642   
    296. A(C  53,C  59,C  54)          119.8379         0.414775   
    297. A(C  64,C  61,H  66)          110.9783         0.324519   
    298. A(H  62,C  61,H  66)          108.0822         0.287148   
    299. A(H  60,C  61,H  66)          108.8566         0.287298   
    300. A(H  62,C  61,C  64)          109.6247         0.324156   
    301. A(H  60,C  61,C  64)          110.9565         0.324333   
    302. A(H  60,C  61,H  62)          108.2554         0.286992   
    303. A(H  63,C  64,H  70)          109.2580         0.287598   
    304. A(C  61,C  64,H  70)          111.2878         0.324507   
    305. A(O  65,C  64,H  70)          108.6583         0.331022   
    306. A(H  63,C  64,O  65)          104.3000         0.331223   
    307. A(C  61,C  64,O  65)          111.5323         0.376239   
    308. A(C  61,C  64,H  63)          111.5370         0.324702   
    309. A(C  64,O  65,C  67)          117.9553         0.412044   
    310. A(C  68,C  67,O  69)          125.5665         0.432284   
    311. A(O  65,C  67,O  69)          125.3065         0.484825   
    312. A(O  65,C  67,C  68)          109.1079         0.395604   
    313. A(C  67,C  68,C  71)          105.5969         0.355829   
    314. A(C  42,C  68,C  71)          115.0856         0.367489   
    315. A(C  32,C  68,C  71)          115.4674         0.367264   
    316. A(C  42,C  68,C  67)          113.5526         0.366525   
    317. A(C  32,C  68,C  67)          113.3280         0.366301   
    318. A(C  32,C  68,C  42)           93.9514         0.378419   
    319. A(O  73,C  71,O  75)          124.7491         0.484977   
    320. A(C  68,C  71,O  75)          126.0890         0.433630   
    321. A(C  68,C  71,O  73)          109.1256         0.396649   
    322. A(C  71,O  73,C  76)          117.1036         0.412653   
    323. A(C  76,H  74,O  81)          114.6086         0.140847   
    324. A(C  77,C  76,H  80)          112.3135         0.325105   
    325. A(H  74,C  76,H  80)          107.1941         0.286849   
    326. A(O  73,C  76,H  80)          108.5553         0.331115   
    327. A(H  74,C  76,C  77)          112.2617         0.325148   
    328. A(O  73,C  76,C  77)          107.9543         0.377982   
    329. A(O  73,C  76,H  74)          108.4473         0.331158   
    330. A(H  78,C  77,H  79)          108.3373         0.287117   
    331. A(C  76,C  77,H  79)          111.0612         0.325316   
    332. A(H  72,C  77,H  79)          108.2525         0.287185   
    333. A(C  76,C  77,H  78)          109.7639         0.325256   
    334. A(H  72,C  77,H  78)          108.3200         0.287135   
    335. A(H  72,C  77,C  76)          111.0181         0.325337   
    336. A(O  81,H  78,O  82)           25.5399         0.105604   
    337. A(C  77,H  78,O  81)          119.6734         0.137444   
    338. A(C  77,H  78,O  82)          141.1319         0.156886   
    339. A(H  74,O  81,H  78)           55.5367         0.101687   
    340. A(H  78,O  81,O  82)           57.8701         0.159541   
    341. A(H  74,O  81,O  82)          105.7468         0.164532   
    342. A(H  78,O  82,O  81)           96.5900         0.187852   
    343. D(C   2,C   1,C   0,C   4)    142.7983         0.016560   
    344. D(C   5,C   1,C   0,C   4)      0.5089         0.016560   
    345. D(C   5,C   1,C   0,C   3)   -142.1341         0.016560   
    346. D(C   2,C   1,C   0,C   3)      0.1552         0.016560   
    347. D(C   6,C   2,C   1,C   0)   -138.3675         0.025007   
    348. D(C   7,C   2,C   1,C   5)    136.8381         0.025007   
    349. D(C   7,C   2,C   1,C   0)     -0.9084         0.025007   
    350. D(C   6,C   2,C   1,C   5)     -0.6210         0.025007   
    351. D(C   9,C   3,C   0,C   1)      0.4119         0.024982   
    352. D(C   8,C   3,C   0,C   1)    138.2891         0.024982   
    353. D(C   8,C   3,C   0,C   4)      0.0239         0.024982   
    354. D(C   9,C   3,C   0,C   4)   -137.8533         0.024982   
    355. D(C  10,C   4,C   0,C   3)     -0.1557         0.016330   
    356. D(C  10,C   4,C   0,C   1)   -142.8360         0.016330   
    357. D(C  11,C   4,C   0,C   3)    142.2859         0.016330   
    358. D(C  11,C   4,C   0,C   1)     -0.3944         0.016330   
    359. D(C  11,C   5,C   1,C   0)     -0.4309         0.016315   
    360. D(C  12,C   5,C   1,C   2)     -0.9182         0.016315   
    361. D(C  11,C   5,C   1,C   2)   -142.7220         0.016315   
    362. D(C  12,C   5,C   1,C   0)    141.3729         0.016315   
    363. D(C  14,C   6,C   2,C   1)      1.3073         0.016669   
    364. D(C  14,C   6,C   2,C   7)   -140.6921         0.016669   
    365. D(C  13,C   6,C   2,C   7)     -0.8981         0.016669   
    366. D(C  13,C   6,C   2,C   1)    141.1014         0.016669   
    367. D(C   9,C   7,C   2,C   1)      1.1125         0.016773   
    368. D(C  15,C   7,C   2,C   1)   -141.0745         0.016773   
    369. D(C   9,C   7,C   2,C   6)    143.1796         0.016773   
    370. D(C  15,C   7,C   2,C   6)      0.9926         0.016773   
    371. D(C  17,C   8,C   3,C   9)     -0.1216         0.016499   
    372. D(C  17,C   8,C   3,C   0)   -142.4665         0.016499   
    373. D(C  16,C   8,C   3,C   9)    142.5873         0.016499   
    374. D(C  16,C   8,C   3,C   0)      0.2423         0.016499   
    375. D(C  18,C   9,C   7,C   2)   -138.5243         0.025763   
    376. D(C   7,C   9,C   3,C   8)   -142.5952         0.016495   
    377. D(C  18,C   9,C   7,C  15)     -0.8986         0.025763   
    378. D(C   3,C   9,C   7,C   2)     -0.5459         0.025763   
    379. D(C  18,C   9,C   3,C   0)    142.1066         0.016495   
    380. D(C   3,C   9,C   7,C  15)    137.0797         0.025763   
    381. D(C   7,C   9,C   3,C   0)     -0.2111         0.016495   
    382. D(C  18,C   9,C   3,C   8)     -0.2774         0.016495   
    383. D(C  19,C  10,C   4,C  11)      0.2112         0.025352   
    384. D(C  16,C  10,C   4,C   0)      0.0256         0.025352   
    385. D(C  16,C  10,C   4,C  11)   -137.9808         0.025352   
    386. D(C  19,C  10,C   4,C   0)    138.2177         0.025352   
    387. D(C  20,C  11,C   4,C  10)      0.6380         0.016517   
    388. D(C  20,C  11,C   5,C  12)      0.6221         0.016899   
    389. D(C  20,C  11,C   5,C   1)    142.4601         0.016899   
    390. D(C   4,C  11,C   5,C  12)   -141.6503         0.016899   
    391. D(C  20,C  11,C   4,C   0)   -141.8529         0.016517   
    392. D(C   5,C  11,C   4,C  10)    142.6184         0.016517   
    393. D(C   5,C  11,C   4,C   0)      0.1275         0.016517   
    394. D(C   4,C  11,C   5,C   1)      0.1877         0.016899   
    395. D(C  21,C  12,C   5,C  11)      0.4671         0.025572   
    396. D(C  21,C  12,C   5,C   1)   -137.0339         0.025572   
    397. D(C  14,C  12,C   5,C   1)      1.7608         0.025572   
    398. D(C  14,C  12,C   5,C  11)    139.2618         0.025572   
    399. D(C  22,C  13,C   6,C  14)     -6.0098         0.016660   
    400. D(C  15,C  13,C   6,C  14)    140.7700         0.016660   
    401. D(C  22,C  13,C   6,C   2)   -146.3285         0.016660   
    402. D(C  15,C  13,C   6,C   2)      0.4513         0.016660   
    403. D(C  23,C  14,C   6,C   2)    143.4864         0.026400   
    404. D(C  12,C  14,C   6,C  13)   -136.3709         0.026400   
    405. D(C  12,C  14,C   6,C   2)     -0.4657         0.026400   
    406. D(C  23,C  14,C  12,C  21)     -4.5720         0.018141   
    407. D(C  23,C  14,C  12,C   5)   -148.5719         0.018141   
    408. D(C   6,C  14,C  12,C  21)    142.9209         0.018141   
    409. D(C   6,C  14,C  12,C   5)     -1.0790         0.018141   
    410. D(C  23,C  14,C   6,C  13)      7.5812         0.026400   
    411. D(C  24,C  15,C  13,C  22)      2.5208         0.018068   
    412. D(C  24,C  15,C  13,C   6)   -143.5095         0.018068   
    413. D(C   7,C  15,C  13,C   6)      0.1693         0.018068   
    414. D(C   7,C  15,C  13,C  22)    146.1996         0.018068   
    415. D(C  24,C  15,C   7,C   9)     -0.0396         0.016409   
    416. D(C  24,C  15,C   7,C   2)    142.3291         0.016409   
    417. D(C  13,C  15,C   7,C   9)   -143.0917         0.016409   
    418. D(C  13,C  15,C   7,C   2)     -0.7231         0.016409   
    419. D(C   8,C  16,C  10,C  19)   -142.3815         0.016421   
    420. D(C   8,C  16,C  10,C   4)      0.2407         0.016421   
    421. D(C  25,C  16,C   8,C  17)     -0.2788         0.025229   
    422. D(C  25,C  16,C  10,C   4)    142.9052         0.016421   
    423. D(C  25,C  16,C   8,C   3)   -138.5990         0.025229   
    424. D(C  25,C  16,C  10,C  19)      0.2830         0.016421   
    425. D(C  10,C  16,C   8,C  17)    137.9476         0.025229   
    426. D(C  10,C  16,C   8,C   3)     -0.3726         0.025229   
    427. D(C  26,C  17,C   8,C   3)    142.9845         0.016356   
    428. D(C  18,C  17,C   8,C  16)   -142.2453         0.016356   
    429. D(C  18,C  17,C   8,C   3)      0.4743         0.016356   
    430. D(C  26,C  17,C   8,C  16)      0.2648         0.016356   
    431. D(C  27,C  18,C  17,C  26)     -0.6919         0.016525   
    432. D(C  27,C  18,C  17,C   8)    141.8313         0.016525   
    433. D(C   9,C  18,C  17,C   8)     -0.6447         0.016525   
    434. D(C   9,C  18,C  17,C  26)   -143.1679         0.016525   
    435. D(C  27,C  18,C   9,C   7)      0.5343         0.016361   
    436. D(C  17,C  18,C   9,C   7)    142.9572         0.016361   
    437. D(C  27,C  18,C   9,C   3)   -141.8523         0.016361   
    438. D(C  17,C  18,C   9,C   3)      0.5705         0.016361   
    439. D(C  29,C  19,C  10,C   4)     -0.5598         0.016414   
    440. D(C  29,C  19,C  10,C  16)    142.0625         0.016414   
    441. D(C  28,C  19,C  10,C   4)   -143.0854         0.016414   
    442. D(C  28,C  19,C  10,C  16)     -0.4631         0.016414   
    443. D(C  30,C  20,C  11,C   5)     -0.6292         0.025458   
    444. D(C  30,C  20,C  11,C   4)    137.0565         0.025458   
    445. D(C  29,C  20,C  11,C   5)   -138.8113         0.025458   
    446. D(C  29,C  20,C  11,C   4)     -1.1257         0.025458   
    447. D(C  31,C  21,C  12,C  14)      0.9399         0.017026   
    448. D(C  31,C  21,C  12,C   5)    144.2809         0.017026   
    449. D(C  30,C  21,C  12,C  14)   -144.8824         0.017026   
    450. D(C  30,C  21,C  12,C   5)     -1.5415         0.017026   
    451. D(C  33,C  22,C  13,C  15)     -6.2654         0.024342   
    452. D(C  33,C  22,C  13,C   6)    135.5208         0.024342   
    453. D(C  32,C  22,C  13,C  15)   -154.3269         0.024342   
    454. D(C  32,C  22,C  13,C   6)    -12.5407         0.024342   
    455. D(C  32,C  23,C  14,C  12)    157.6826         0.017950   
    456. D(C  32,C  23,C  14,C   6)     10.1229         0.017950   
    457. D(C  31,C  23,C  14,C  12)      6.4110         0.017950   
    458. D(C  31,C  23,C  14,C   6)   -141.1488         0.017950   
    459. D(C  34,C  24,C  15,C  13)      1.4683         0.026843   
    460. D(C  34,C  24,C  15,C   7)   -137.8531         0.026843   
    461. D(C  27,C  24,C  15,C  13)    140.6413         0.026843   
    462. D(C  27,C  24,C  15,C   7)      1.3199         0.026843   
    463. D(C  35,C  25,C  16,C  10)   -142.7119         0.016471   
    464. D(C  35,C  25,C  16,C   8)     -0.0456         0.016471   
    465. D(C  28,C  25,C  16,C  10)      0.0052         0.016471   
    466. D(C  28,C  25,C  16,C   8)    142.6715         0.016471   
    467. D(C  36,C  26,C  17,C   8)   -138.1826         0.025208   
    468. D(C  35,C  26,C  17,C  18)    138.1476         0.025208   
    469. D(C  35,C  26,C  17,C   8)      0.0710         0.025208   
    470. D(C  36,C  26,C  17,C  18)     -0.1060         0.025208   
    471. D(C  37,C  27,C  24,C  34)     -1.1285         0.016336   
    472. D(C  37,C  27,C  24,C  15)   -144.2377         0.016336   
    473. D(C  18,C  27,C  24,C  34)    141.4285         0.016336   
    474. D(C  18,C  27,C  24,C  15)     -1.6808         0.016336   
    475. D(C  37,C  27,C  18,C  17)      0.7267         0.025117   
    476. D(C  37,C  27,C  18,C   9)    138.7052         0.025117   
    477. D(C  24,C  27,C  18,C  17)   -137.2264         0.025117   
    478. D(C  24,C  27,C  18,C   9)      0.7521         0.025117   
    479. D(C  38,C  28,C  25,C  35)     -0.2419         0.016455   
    480. D(C  38,C  28,C  25,C  16)   -142.9688         0.016455   
    481. D(C  19,C  28,C  25,C  35)    142.4354         0.016455   
    482. D(C  19,C  28,C  25,C  16)     -0.2916         0.016455   
    483. D(C  38,C  28,C  19,C  29)      0.6118         0.016451   
    484. D(C  38,C  28,C  19,C  10)    143.1395         0.016451   
    485. D(C  25,C  28,C  19,C  29)   -142.0614         0.016451   
    486. D(C  25,C  28,C  19,C  10)      0.4663         0.016451   
    487. D(C  39,C  29,C  20,C  30)      0.6595         0.016601   
    488. D(C  39,C  29,C  20,C  11)    143.4143         0.016601   
    489. D(C  19,C  29,C  20,C  30)   -141.9800         0.016601   
    490. D(C  19,C  29,C  20,C  11)      0.7748         0.016601   
    491. D(C  39,C  29,C  19,C  28)     -0.0415         0.024988   
    492. D(C  39,C  29,C  19,C  10)   -138.1241         0.024988   
    493. D(C  20,C  29,C  19,C  28)    138.1546         0.024988   
    494. D(C  20,C  29,C  19,C  10)      0.0720         0.024988   
    495. D(C  40,C  30,C  21,C  31)     -1.1166         0.025948   
    496. D(C  40,C  30,C  21,C  12)    140.0150         0.025948   
    497. D(C  20,C  30,C  21,C  31)   -139.6071         0.025948   
    498. D(C  20,C  30,C  21,C  12)      1.5245         0.025948   
    499. D(C  40,C  30,C  20,C  29)     -0.4253         0.016170   
    500. D(C  40,C  30,C  20,C  11)   -143.0427         0.016170   
    501. D(C  21,C  30,C  20,C  29)    142.1474         0.016170   
    502. D(C  21,C  30,C  20,C  11)     -0.4700         0.016170   
    503. D(C  41,C  31,C  23,C  32)    -10.5001         0.014383   
    504. D(C  41,C  31,C  23,C  14)    138.0858         0.014383   
    505. D(C  21,C  31,C  23,C  32)   -154.2188         0.014383   
    506. D(C  21,C  31,C  23,C  14)     -5.6330         0.014383   
    507. D(C  41,C  31,C  21,C  30)      0.9187         0.014617   
    508. D(C  41,C  31,C  21,C  12)   -143.4126         0.014617   
    509. D(C  23,C  31,C  21,C  30)    147.2338         0.014617   
    510. D(C  23,C  31,C  21,C  12)      2.9026         0.014617   
    511. D(C  68,C  32,C  23,C  31)    -36.3554         0.025130   
    512. D(C  68,C  32,C  23,C  14)    178.1511         0.025130   
    513. D(C  22,C  32,C  23,C  31)    116.8162         0.025130   
    514. D(C  22,C  32,C  23,C  14)    -28.6774         0.025130   
    515. D(C  68,C  32,C  22,C  33)     35.4924         0.015424   
    516. D(C  68,C  32,C  22,C  13)   -175.4530         0.015424   
    517. D(C  23,C  32,C  22,C  33)   -119.1264         0.015424   
    518. D(C  23,C  32,C  22,C  13)     29.9282         0.015424   
    519. D(C  43,C  33,C  22,C  32)      8.4603         0.013729   
    520. D(C  43,C  33,C  22,C  13)   -140.1861         0.013729   
    521. D(C  34,C  33,C  22,C  32)    154.5990         0.013729   
    522. D(C  34,C  33,C  22,C  13)      5.9526         0.013729   
    523. D(C  44,C  34,C  33,C  43)      1.9756         0.022121   
    524. D(C  44,C  34,C  33,C  22)   -143.4984         0.022121   
    525. D(C  24,C  34,C  33,C  43)    143.2890         0.022121   
    526. D(C  24,C  34,C  33,C  22)     -2.1850         0.022121   
    527. D(C  44,C  34,C  24,C  27)      1.8728         0.016423   
    528. D(C  44,C  34,C  24,C  15)    144.8584         0.016423   
    529. D(C  33,C  34,C  24,C  27)   -144.5130         0.016423   
    530. D(C  33,C  34,C  24,C  15)     -1.5274         0.016423   
    531. D(C  45,C  35,C  26,C  36)     -0.3873         0.016349   
    532. D(C  45,C  35,C  26,C  17)   -143.0728         0.016349   
    533. D(C  25,C  35,C  26,C  36)    142.2904         0.016349   
    534. D(C  25,C  35,C  26,C  17)     -0.3952         0.016349   
    535. D(C  45,C  35,C  25,C  28)      0.3479         0.025223   
    536. D(C  26,C  35,C  25,C  16)      0.3814         0.025223   
    537. D(C  45,C  35,C  25,C  16)    138.6436         0.025223   
    538. D(C  26,C  35,C  25,C  28)   -137.9143         0.025223   
    539. D(C  46,C  36,C  26,C  35)      0.5739         0.016535   
    540. D(C  46,C  36,C  26,C  17)    143.2590         0.016535   
    541. D(C  37,C  36,C  26,C  35)   -141.8127         0.016535   
    542. D(C  37,C  36,C  26,C  17)      0.8724         0.016535   
    543. D(C  44,C  37,C  36,C  46)     -0.6497         0.025039   
    544. D(C  44,C  37,C  36,C  26)    137.2366         0.025039   
    545. D(C  27,C  37,C  36,C  46)   -138.7256         0.025039   
    546. D(C  27,C  37,C  36,C  26)     -0.8394         0.025039   
    547. D(C  44,C  37,C  27,C  24)     -0.0769         0.017247   
    548. D(C  44,C  37,C  27,C  18)   -142.6479         0.017247   
    549. D(C  36,C  37,C  27,C  24)    142.6121         0.017247   
    550. D(C  36,C  37,C  27,C  18)      0.0411         0.017247   
    551. D(C  48,C  38,C  28,C  25)    137.9942         0.025350   
    552. D(C  48,C  38,C  28,C  19)     -0.2547         0.025350   
    553. D(C  47,C  38,C  28,C  25)      0.0092         0.025350   
    554. D(C  47,C  38,C  28,C  19)   -138.2397         0.025350   
    555. D(C  48,C  39,C  29,C  20)   -143.5294         0.016536   
    556. D(C  48,C  39,C  29,C  19)     -0.8975         0.016536   
    557. D(C  40,C  39,C  29,C  20)     -0.6430         0.016536   
    558. D(C  40,C  39,C  29,C  19)    141.9890         0.016536   
    559. D(C  49,C  40,C  39,C  48)      0.4995         0.016214   
    560. D(C  49,C  40,C  39,C  29)   -142.2231         0.016214   
    561. D(C  30,C  40,C  39,C  48)    143.1029         0.016214   
    562. D(C  30,C  40,C  39,C  29)      0.3803         0.016214   
    563. D(C  49,C  40,C  30,C  21)      0.0423         0.017483   
    564. D(C  49,C  40,C  30,C  20)    143.1557         0.017483   
    565. D(C  39,C  40,C  30,C  21)   -143.0856         0.017483   
    566. D(C  39,C  40,C  30,C  20)      0.0278         0.017483   
    567. D(C  50,C  41,C  31,C  23)     -0.4392         0.021980   
    568. D(C  50,C  41,C  31,C  21)    139.2861         0.021980   
    569. D(C  49,C  41,C  31,C  23)   -139.4061         0.021980   
    570. D(C  49,C  41,C  31,C  21)      0.3192         0.021980   
    571. D(C  51,C  43,C  42,C  68)    175.3411         0.015720   
    572. D(C  51,C  43,C  42,C  50)    -29.9922         0.015720   
    573. D(C  33,C  43,C  42,C  68)    -35.2269         0.015720   
    574. D(C  33,C  43,C  42,C  50)    119.4399         0.015720   
    575. D(C  51,C  43,C  33,C  34)     -5.7962         0.013948   
    576. D(C  51,C  43,C  33,C  22)    140.3557         0.013948   
    577. D(C  42,C  43,C  33,C  34)   -154.7880         0.013948   
    578. D(C  42,C  43,C  33,C  22)     -8.6361         0.013948   
    579. D(C  52,C  44,C  37,C  36)      1.4398         0.016393   
    580. D(C  52,C  44,C  37,C  27)    144.0812         0.016393   
    581. D(C  34,C  44,C  37,C  36)   -141.3879         0.016393   
    582. D(C  34,C  44,C  37,C  27)      1.2534         0.016393   
    583. D(C  52,C  44,C  34,C  33)      1.7652         0.016279   
    584. D(C  52,C  44,C  34,C  24)   -144.6243         0.016279   
    585. D(C  37,C  44,C  34,C  33)    144.4691         0.016279   
    586. D(C  37,C  44,C  34,C  24)     -1.9204         0.016279   
    587. D(C  47,C  45,C  35,C  26)    142.4233         0.016507   
    588. D(C  47,C  45,C  35,C  25)     -0.2258         0.016507   
    589. D(C  46,C  45,C  35,C  26)      0.0518         0.016507   
    590. D(C  46,C  45,C  35,C  25)   -142.5973         0.016507   
    591. D(C  53,C  46,C  45,C  35)    142.5718         0.016455   
    592. D(C  36,C  46,C  45,C  47)   -142.0858         0.016455   
    593. D(C  36,C  46,C  45,C  35)      0.3034         0.016455   
    594. D(C  53,C  46,C  36,C  37)     -0.5353         0.016410   
    595. D(C  53,C  46,C  36,C  26)   -142.8662         0.016410   
    596. D(C  45,C  46,C  36,C  37)    141.7881         0.016410   
    597. D(C  45,C  46,C  36,C  26)     -0.5427         0.016410   
    598. D(C  53,C  46,C  45,C  47)      0.1826         0.016455   
    599. D(C  54,C  47,C  45,C  46)     -0.3365         0.025009   
    600. D(C  54,C  47,C  45,C  35)   -138.2259         0.025009   
    601. D(C  38,C  47,C  45,C  46)    137.8827         0.025009   
    602. D(C  38,C  47,C  45,C  35)     -0.0067         0.025009   
    603. D(C  54,C  47,C  38,C  48)      0.3386         0.016336   
    604. D(C  54,C  47,C  38,C  28)    142.7625         0.016336   
    605. D(C  45,C  47,C  38,C  48)   -142.3111         0.016336   
    606. D(C  45,C  47,C  38,C  28)      0.1127         0.016336   
    607. D(C  55,C  48,C  39,C  40)      0.4734         0.025417   
    608. D(C  55,C  48,C  39,C  29)    138.8091         0.025417   
    609. D(C  38,C  48,C  39,C  40)   -137.0791         0.025417   
    610. D(C  38,C  48,C  39,C  29)      1.2567         0.025417   
    611. D(C  55,C  48,C  38,C  47)     -0.0589         0.016455   
    612. D(C  55,C  48,C  38,C  28)   -142.5257         0.016455   
    613. D(C  39,C  48,C  38,C  47)    141.7796         0.016455   
    614. D(C  39,C  48,C  38,C  28)     -0.6871         0.016455   
    615. D(C  56,C  49,C  41,C  50)     -2.8799         0.014423   
    616. D(C  56,C  49,C  41,C  31)    142.8491         0.014423   
    617. D(C  40,C  49,C  41,C  50)   -147.1229         0.014423   
    618. D(C  40,C  49,C  41,C  31)     -1.3939         0.014423   
    619. D(C  56,C  49,C  40,C  39)     -1.3988         0.025775   
    620. D(C  56,C  49,C  40,C  30)   -139.8574         0.025775   
    621. D(C  41,C  49,C  40,C  39)    139.6777         0.025775   
    622. D(C  41,C  49,C  40,C  30)      1.2191         0.025775   
    623. D(C  57,C  50,C  42,C  68)   -178.0558         0.024863   
    624. D(C  57,C  50,C  42,C  43)     28.5681         0.024863   
    625. D(C  41,C  50,C  42,C  68)     36.6420         0.024863   
    626. D(C  41,C  50,C  42,C  43)   -116.7341         0.024863   
    627. D(C  57,C  50,C  41,C  49)      5.5021         0.013965   
    628. D(C  57,C  50,C  41,C  31)   -137.5004         0.013965   
    629. D(C  42,C  50,C  41,C  49)    153.9162         0.013965   
    630. D(C  42,C  50,C  41,C  31)     10.9136         0.013965   
    631. D(C  58,C  51,C  43,C  42)     12.7585         0.024769   
    632. D(C  58,C  51,C  43,C  33)   -135.6377         0.024769   
    633. D(C  52,C  51,C  43,C  42)    154.5131         0.024769   
    634. D(C  52,C  51,C  43,C  33)      6.1169         0.024769   
    635. D(C  53,C  52,C  51,C  58)     -0.2071         0.018001   
    636. D(C  53,C  52,C  51,C  43)   -146.2128         0.018001   
    637. D(C  44,C  52,C  51,C  58)    143.6728         0.018001   
    638. D(C  44,C  52,C  51,C  43)     -2.3328         0.018001   
    639. D(C  53,C  52,C  44,C  37)     -1.0465         0.026974   
    640. D(C  53,C  52,C  44,C  34)    137.8278         0.026974   
    641. D(C  51,C  52,C  44,C  37)   -140.5580         0.026974   
    642. D(C  51,C  52,C  44,C  34)     -1.6837         0.026974   
    643. D(C  59,C  53,C  52,C  51)      0.7891         0.016470   
    644. D(C  59,C  53,C  52,C  44)   -142.4367         0.016470   
    645. D(C  46,C  53,C  52,C  51)    143.0935         0.016470   
    646. D(C  46,C  53,C  52,C  44)     -0.1323         0.016470   
    647. D(C  59,C  53,C  46,C  45)      0.5379         0.025702   
    648. D(C  59,C  53,C  46,C  36)    138.4647         0.025702   
    649. D(C  52,C  53,C  46,C  45)   -136.9965         0.025702   
    650. D(C  52,C  53,C  46,C  36)      0.9304         0.025702   
    651. D(C  59,C  54,C  47,C  45)     -0.2429         0.016534   
    652. D(C  59,C  54,C  47,C  38)   -142.8628         0.016534   
    653. D(C  55,C  54,C  47,C  45)    142.1323         0.016534   
    654. D(C  55,C  54,C  47,C  38)     -0.4876         0.016534   
    655. D(C  56,C  55,C  54,C  59)      0.9268         0.016399   
    656. D(C  56,C  55,C  54,C  47)   -141.4448         0.016399   
    657. D(C  48,C  55,C  54,C  59)    142.8238         0.016399   
    658. D(C  48,C  55,C  54,C  47)      0.4522         0.016399   
    659. D(C  56,C  55,C  48,C  39)     -0.4972         0.016951   
    660. D(C  56,C  55,C  48,C  38)    141.6585         0.016951   
    661. D(C  54,C  55,C  48,C  39)   -142.3989         0.016951   
    662. D(C  54,C  55,C  48,C  38)     -0.2433         0.016951   
    663. D(C  57,C  56,C  55,C  54)     -1.8689         0.025439   
    664. D(C  57,C  56,C  55,C  48)   -139.4534         0.025439   
    665. D(C  49,C  56,C  55,C  54)    137.1496         0.025439   
    666. D(C  49,C  56,C  55,C  48)     -0.4349         0.025439   
    667. D(C  57,C  56,C  49,C  41)     -0.8444         0.017063   
    668. D(C  57,C  56,C  49,C  40)    144.9106         0.017063   
    669. D(C  55,C  56,C  49,C  41)   -144.3713         0.017063   
    670. D(C  55,C  56,C  49,C  40)      1.3837         0.017063   
    671. D(C  58,C  57,C  56,C  55)      1.3483         0.018214   
    672. D(C  58,C  57,C  56,C  49)   -142.8247         0.018214   
    673. D(C  50,C  57,C  56,C  55)    148.5763         0.018214   
    674. D(C  50,C  57,C  56,C  49)      4.4032         0.018214   
    675. D(C  58,C  57,C  50,C  42)     -9.9965         0.017934   
    676. D(C  58,C  57,C  50,C  41)    141.0977         0.017934   
    677. D(C  56,C  57,C  50,C  42)   -157.3188         0.017934   
    678. D(C  56,C  57,C  50,C  41)     -6.2246         0.017934   
    679. D(C  59,C  58,C  57,C  56)      0.1440         0.026269   
    680. D(C  59,C  58,C  57,C  50)   -143.5769         0.026269   
    681. D(C  51,C  58,C  57,C  56)    136.1880         0.026269   
    682. D(C  51,C  58,C  57,C  50)     -7.5328         0.026269   
    683. D(C  59,C  58,C  51,C  52)     -0.4568         0.016733   
    684. D(C  59,C  58,C  51,C  43)    146.2749         0.016733   
    685. D(C  57,C  58,C  51,C  52)   -140.9131         0.016733   
    686. D(C  57,C  58,C  51,C  43)      5.8186         0.016733   
    687. D(C  54,C  59,C  58,C  57)     -1.0872         0.016691   
    688. D(C  54,C  59,C  58,C  51)   -141.0358         0.016691   
    689. D(C  53,C  59,C  58,C  57)    140.8929         0.016691   
    690. D(C  53,C  59,C  58,C  51)      0.9443         0.016691   
    691. D(C  58,C  59,C  54,C  55)      0.5577         0.025013   
    692. D(C  58,C  59,C  54,C  47)    138.4061         0.025013   
    693. D(C  53,C  59,C  54,C  55)   -136.8891         0.025013   
    694. D(C  53,C  59,C  54,C  47)      0.9592         0.025013   
    695. D(C  58,C  59,C  53,C  52)     -1.0614         0.016688   
    696. D(C  58,C  59,C  53,C  46)   -143.1627         0.016688   
    697. D(C  54,C  59,C  53,C  52)    140.9849         0.016688   
    698. D(C  54,C  59,C  53,C  46)     -1.1163         0.016688   
    699. D(O  65,C  64,C  61,H  66)    -65.4640         0.012048   
    700. D(O  65,C  64,C  61,H  62)    175.2195         0.012048   
    701. D(O  65,C  64,C  61,H  60)     55.7018         0.012048   
    702. D(H  63,C  64,C  61,H  66)    178.3571         0.012048   
    703. D(H  63,C  64,C  61,H  62)     59.0405         0.012048   
    704. D(H  63,C  64,C  61,H  60)    -60.4772         0.012048   
    705. D(C  67,O  65,C  64,H  70)    -37.7888         0.016340   
    706. D(C  67,O  65,C  64,H  63)   -154.2327         0.016340   
    707. D(C  67,O  65,C  64,C  61)     85.2476         0.016340   
    708. D(O  69,C  67,O  65,C  64)      0.7292         0.034266   
    709. D(C  68,C  67,O  65,C  64)    179.2111         0.034266   
    710. D(C  71,C  68,C  67,O  65)    -63.0230         0.009191   
    711. D(C  42,C  68,C  67,O  69)    -11.5496         0.009191   
    712. D(C  42,C  68,C  67,O  65)    169.9735         0.009191   
    713. D(C  32,C  68,C  67,O  65)     64.3184         0.009191   
    714. D(C  71,C  68,C  42,C  43)   -170.1833         0.013114   
    715. D(C  67,C  68,C  42,C  50)    158.1455         0.013114   
    716. D(C  67,C  68,C  42,C  43)    -48.3191         0.013114   
    717. D(C  32,C  68,C  42,C  50)    -84.2659         0.013114   
    718. D(C  32,C  68,C  42,C  43)     69.2695         0.013114   
    719. D(C  71,C  68,C  32,C  22)    170.4938         0.013023   
    720. D(C  32,C  68,C  67,O  69)   -117.2047         0.009191   
    721. D(C  67,C  68,C  32,C  23)   -158.1001         0.013023   
    722. D(C  67,C  68,C  32,C  22)     48.5079         0.013023   
    723. D(C  42,C  68,C  32,C  23)     84.1256         0.013023   
    724. D(C  42,C  68,C  32,C  22)    -69.2664         0.013023   
    725. D(O  75,C  71,C  68,C  42)   -119.7622         0.009451   
    726. D(O  75,C  71,C  68,C  32)    -11.8696         0.009451   
    727. D(O  73,C  71,C  68,C  67)    -63.7145         0.009451   
    728. D(O  73,C  71,C  68,C  42)     62.3540         0.009451   
    729. D(O  73,C  71,C  68,C  32)    170.2466         0.009451   
    730. D(C  76,O  73,C  71,O  75)      0.5632         0.037831   
    731. D(C  76,O  73,C  71,C  68)    178.4819         0.037831   
    732. D(H  80,C  76,H  74,O  81)    -68.1305         0.119135   
    733. D(C  77,C  76,H  74,O  81)     55.6571         0.119135   
    734. D(O  73,C  76,H  74,O  81)    174.8450         0.119135   
    735. D(H  80,C  76,O  73,C  71)    -58.0914         0.018015   
    736. D(C  77,C  76,O  73,C  71)    179.9191         0.018015   
    737. D(H  74,C  76,O  73,C  71)     58.0559         0.018015   
    738. D(H  78,C  77,C  76,H  80)     60.3773         0.012474   
    739. D(H  78,C  77,C  76,H  74)    -60.5048         0.012474   
    740. D(H  78,C  77,C  76,O  73)   -179.9812         0.012474   
    741. D(H  72,C  77,C  76,H  80)   -179.8962         0.012474   
    742. D(H  72,C  77,C  76,H  74)     59.2217         0.012474   
    743. D(H  72,C  77,C  76,O  73)    -60.2546         0.012474   
    744. D(O  81,H  78,C  77,C  76)     31.4698         0.119724   
    745. D(O  81,H  78,C  77,H  72)    -89.8913         0.119724   
    746. D(O  82,H  78,C  77,H  79)    134.3212         0.119724   
    747. D(O  82,H  78,C  77,C  76)     12.8966         0.119724   
    748. D(O  82,H  78,C  77,H  72)   -108.4645         0.119724   
    749. D(H  74,O  81,H  78,O  82)    145.0575         0.001500   
    750. D(H  74,O  81,H  78,C  77)     -7.3225         0.001500   
    751. D(O  82,O  81,H  78,C  77)   -152.3800         0.001500   
    752. D(H  78,O  81,H  74,C  76)    -28.7832         0.001501   
    753. D(O  82,O  81,H  74,C  76)      1.4782         0.001501   
    754. D(H  78,O  82,O  81,H  74)    -29.3828         0.104692   
    755. D(O  81,O  82,H  78,C  77)     39.9333         0.001506   
    -----------------------------------------------------------------

Number of atoms                         .... 83
Number of degrees of freedom            .... 755


         *************************************************************
         *                GEOMETRY OPTIMIZATION CYCLE   1            *
         *************************************************************
---------------------------------
CARTESIAN COORDINATES (ANGSTROEM)
---------------------------------
  C      3.363850   -1.995840    0.386459
  C      3.660550   -0.572846    0.435208
  C      3.240830    0.192357    1.529930
  C      2.655790   -2.600090    1.432410
  C      3.061540   -2.347190   -0.994117
  C      3.528910   -0.044316   -0.915537
  C      2.686340    1.519350    1.319250
  C      2.492190   -0.434311    2.605630
  C      1.619450   -3.578390    1.139660
  C      2.209620   -1.800970    2.563430
  C      2.067320   -3.289520   -1.274680
  C      3.162500   -1.138140   -1.796830
  C      2.965250    1.218880   -1.112210
  C      1.582810    1.709180    2.246150
  C      2.552080    2.008340    0.021757
  C      1.465760    0.505387    3.032650
  C      1.333690   -3.919280   -0.186634
  C      0.534464   -3.385680    2.091430
  C      0.894996   -2.280440    2.965860
  C      1.137940   -3.062220   -2.371680
  C      2.259900   -0.909713   -2.839330
  C      2.009350    1.465060   -2.175270
  C      0.467253    2.477220    1.878010
  C      1.419560    2.825640   -0.343398
  C      0.201739    0.055720    3.399700
  C     -0.047186   -4.087250   -0.613747
  C     -0.793056   -3.546950    1.680450
  C     -0.084585   -1.372010    3.382640
  C     -0.167240   -3.561630   -1.965460
  C      1.232520   -1.894360   -3.138200
  C      1.680260    0.413826   -3.031670
  C      1.007260    2.433370   -1.702730
  C      0.575612    3.295830    0.669034
  C     -0.886608    1.966510    2.189290
  C     -0.980280    0.783077    2.961080
  C     -1.089940   -3.908960    0.301612
  C     -1.812550   -2.611390    2.129100
  C     -1.459580   -1.539570    2.957510
  C     -1.327090   -2.882580   -2.351260
  C      0.026716   -1.180890   -3.529210
  C      0.306923    0.247335   -3.456360
  C     -0.337138    2.274450   -2.120660
  C     -1.503750    3.040890    0.030620
  C     -1.907820    2.183830    1.143310
  C     -2.013090   -0.214793    2.716890
  C     -2.298060   -3.204600   -0.099515
  C     -2.746620   -2.406420    1.031650
  C     -2.415150   -2.700950   -1.400560
  C     -1.226870   -1.673220   -3.154530
  C     -0.665071    1.141230   -3.003150
  C     -1.514060    2.470960   -1.248940
  C     -2.837310    1.169090    0.878878
  C     -2.917330   -0.030678    1.676990
  C     -3.296560   -1.140960    0.816219
  C     -2.991470   -1.383850   -1.622020
  C     -2.250300   -0.749007   -2.702210
  C     -1.967380    0.618334   -2.636860
  C     -2.443530    1.400990   -1.523750
  C     -3.163610    0.805672   -0.489590
  C     -3.433910   -0.621621   -0.534234
  H      1.010790    5.705940    4.394390
  C     -0.025016    6.079210    4.378860
  H     -0.141970    6.807100    5.197980
  H      0.317939    7.608190    2.867080
  C     -0.341423    6.748470    3.052680
  O     -0.093766    5.861210    1.938010
  H     -0.708809    5.238550    4.568850
  C     -1.065940    5.013850    1.583050
  C     -0.593688    4.181990    0.364946
  O     -2.143680    4.933900    2.108530
  H     -1.389790    7.079880    3.012590
  C     -0.375757    5.201460   -0.774825
  H     -3.622710    6.464330   -2.595590
  O     -1.546000    5.771780   -1.082410
  H     -1.127360    6.338940   -3.033900
  O      0.675863    5.478440   -1.284850
  C     -1.533960    6.784160   -2.111600
  C     -2.951870    7.282870   -2.292240
  H     -2.977080    8.058690   -3.073540
  H     -3.339960    7.718750   -1.358600
  H     -0.843760    7.587090   -1.805680
  O     -1.194570    7.943060   -5.165550
  O     -1.655270    8.974870   -4.780190

----------------------------
CARTESIAN COORDINATES (A.U.)
----------------------------
  NO LB      ZA    FRAG     MASS         X           Y           Z
   0 C     6.0000    0    12.011    6.356755   -3.771591    0.730302
   1 C     6.0000    0    12.011    6.917437   -1.082522    0.822424
   2 C     6.0000    0    12.011    6.124281    0.363502    2.891149
   3 C     6.0000    0    12.011    5.018716   -4.913458    2.706863
   4 C     6.0000    0    12.011    5.785472   -4.435546   -1.878609
   5 C     6.0000    0    12.011    6.668673   -0.083745   -1.730114
   6 C     6.0000    0    12.011    5.076447    2.871155    2.493021
   7 C     6.0000    0    12.011    4.709557   -0.820729    4.923927
   8 C     6.0000    0    12.011    3.060317   -6.762177    2.153645
   9 C     6.0000    0    12.011    4.175577   -3.403340    4.844181
  10 C     6.0000    0    12.011    3.906669   -6.216292   -2.408796
  11 C     6.0000    0    12.011    5.976259   -2.150773   -3.395517
  12 C     6.0000    0    12.011    5.603510    2.303349   -2.101772
  13 C     6.0000    0    12.011    2.991077    3.229882    4.244608
  14 C     6.0000    0    12.011    4.822732    3.795213    0.041115
  15 C     6.0000    0    12.011    2.769885    0.955043    5.730878
  16 C     6.0000    0    12.011    2.520309   -7.406366   -0.352687
  17 C     6.0000    0    12.011    1.009991   -6.398008    3.952230
  18 C     6.0000    0    12.011    1.691297   -4.309407    5.604663
  19 C     6.0000    0    12.011    2.150395   -5.786757   -4.481826
  20 C     6.0000    0    12.011    4.270592   -1.719108   -5.365556
  21 C     6.0000    0    12.011    3.797121    2.768562   -4.110665
  22 C     6.0000    0    12.011    0.882980    4.681267    3.548925
  23 C     6.0000    0    12.011    2.682580    5.339686   -0.648928
  24 C     6.0000    0    12.011    0.381231    0.105296    6.424502
  25 C     6.0000    0    12.011   -0.089169   -7.723783   -1.159814
  26 C     6.0000    0    12.011   -1.498659   -6.702764    3.175590
  27 C     6.0000    0    12.011   -0.159842   -2.592723    6.392263
  28 C     6.0000    0    12.011   -0.316038   -6.730505   -3.714181
  29 C     6.0000    0    12.011    2.329125   -3.579822   -5.930339
  30 C     6.0000    0    12.011    3.175231    0.782018   -5.729026
  31 C     6.0000    0    12.011    1.903446    4.598403   -3.217693
  32 C     6.0000    0    12.011    1.087749    6.228216    1.264291
  33 C     6.0000    0    12.011   -1.675446    3.716165    4.137159
  34 C     6.0000    0    12.011   -1.852461    1.479801    5.595630
  35 C     6.0000    0    12.011   -2.059688   -7.386864    0.569964
  36 C     6.0000    0    12.011   -3.425223   -4.934812    4.023416
  37 C     6.0000    0    12.011   -2.758206   -2.909366    5.588884
  38 C     6.0000    0    12.011   -2.507837   -5.447287   -4.443237
  39 C     6.0000    0    12.011    0.050486   -2.231559   -6.669240
  40 C     6.0000    0    12.011    0.580000    0.467395   -6.531574
  41 C     6.0000    0    12.011   -0.637098    4.298088   -4.007467
  42 C     6.0000    0    12.011   -2.841676    5.746449    0.057863
  43 C     6.0000    0    12.011   -3.605257    4.126841    2.160543
  44 C     6.0000    0    12.011   -3.804189   -0.405900    5.134178
  45 C     6.0000    0    12.011   -4.342704   -6.055816   -0.188056
  46 C     6.0000    0    12.011   -5.190360   -4.547475    1.949536
  47 C     6.0000    0    12.011   -4.563972   -5.104056   -2.646675
  48 C     6.0000    0    12.011   -2.318448   -3.161928   -5.961198
  49 C     6.0000    0    12.011   -1.256802    2.156612   -5.675131
  50 C     6.0000    0    12.011   -2.861159    4.669438   -2.360155
  51 C     6.0000    0    12.011   -5.361739    2.209260    1.660839
  52 C     6.0000    0    12.011   -5.512955   -0.057973    3.169052
  53 C     6.0000    0    12.011   -6.229596   -2.156102    1.542430
  54 C     6.0000    0    12.011   -5.653059   -2.615098   -3.065174
  55 C     6.0000    0    12.011   -4.252451   -1.415418   -5.106437
  56 C     6.0000    0    12.011   -3.717809    1.168482   -4.982943
  57 C     6.0000    0    12.011   -4.617603    2.647487   -2.879470
  58 C     6.0000    0    12.011   -5.978356    1.522499   -0.925191
  59 C     6.0000    0    12.011   -6.489149   -1.174693   -1.009556
  60 H     1.0000    0     1.008    1.910116   10.782664    8.304194
  61 C     6.0000    0    12.011   -0.047273   11.488042    8.274846
  62 H     1.0000    0     1.008   -0.268284   12.863555    9.822759
  63 H     1.0000    0     1.008    0.600818   14.377395    5.417996
  64 C     6.0000    0    12.011   -0.645196   12.752760    5.768729
  65 O     8.0000    0    15.999   -0.177192   11.076082    3.662308
  66 H     1.0000    0     1.008   -1.339455    9.899425    8.633875
  67 C     6.0000    0    12.011   -2.014335    9.474803    2.991531
  68 C     6.0000    0    12.011   -1.121908    7.902816    0.689648
  69 O     8.0000    0    15.999   -4.050968    9.323720    3.984544
  70 H     1.0000    0     1.008   -2.626322   13.379034    5.692970
  71 C     6.0000    0    12.011   -0.710078    9.829335   -1.464207
  72 H     1.0000    0     1.008   -6.845930   12.215813   -4.904954
  73 O     8.0000    0    15.999   -2.921517   10.907084   -2.045458
  74 H     1.0000    0     1.008   -2.130402   11.978861   -5.733240
  75 O     8.0000    0    15.999    1.277196   10.352751   -2.428015
  76 C     6.0000    0    12.011   -2.898764   12.820204   -3.990346
  77 C     6.0000    0    12.011   -5.578226   13.762630   -4.331706
  78 H     1.0000    0     1.008   -5.625866   15.228717   -5.808149
[...]
 10 C      6.0173     6.0000    -0.0173     3.9951     3.9950     0.0001
 11 C      6.0296     6.0000    -0.0296     4.0029     4.0028     0.0001
 12 C      5.9896     6.0000     0.0104     3.9635     3.9614     0.0021
 13 C      6.0470     6.0000    -0.0470     3.9910     3.9899     0.0012
 14 C      6.0283     6.0000    -0.0283     3.9971     3.9969     0.0002
 15 C      6.0210     6.0000    -0.0210     3.9721     3.9720     0.0001
 16 C      6.0125     6.0000    -0.0125     3.9847     3.9847     0.0000
 17 C      6.0138     6.0000    -0.0138     3.9844     3.9844     0.0001
 18 C      6.0160     6.0000    -0.0160     3.9922     3.9920     0.0001
 19 C      6.0147     6.0000    -0.0147     3.9840     3.9822     0.0018
 20 C      6.0139     6.0000    -0.0139     3.9890     3.9889     0.0001
 21 C      6.0246     6.0000    -0.0246     4.0082     4.0081     0.0002
 22 C      5.9876     6.0000     0.0124     3.9415     3.9414     0.0001
 23 C      5.9839     6.0000     0.0161     4.0036     4.0036     0.0000
 24 C      6.0327     6.0000    -0.0327     3.9953     3.9951     0.0002
 25 C      6.0143     6.0000    -0.0143     3.9866     3.9866     0.0000
 26 C      6.0130     6.0000    -0.0130     3.9827     3.9827     0.0000
 27 C      6.0092     6.0000    -0.0092     3.9748     3.9731     0.0017
 28 C      6.0178     6.0000    -0.0178     3.9942     3.9940     0.0001
 29 C      6.0116     6.0000    -0.0116     3.9720     3.9675     0.0046
 30 C      6.0261     6.0000    -0.0261     3.9811     3.9804     0.0007
 31 C      6.0006     6.0000    -0.0006     3.9794     3.9793     0.0000
 32 C      5.9739     6.0000     0.0261     3.9136     3.9136     0.0000
 33 C      5.9948     6.0000     0.0052     3.9847     3.9818     0.0030
 34 C      6.0404     6.0000    -0.0404     3.9786     3.9719     0.0067
 35 C      6.0137     6.0000    -0.0137     3.9861     3.9861     0.0000
 36 C      6.0163     6.0000    -0.0163     3.9928     3.9926     0.0002
 37 C      6.0138     6.0000    -0.0138     3.9799     3.9788     0.0010
 38 C      6.0156     6.0000    -0.0156     3.9822     3.9809     0.0013
 39 C      6.0161     6.0000    -0.0161     3.9910     3.9909     0.0001
 40 C      6.0215     6.0000    -0.0215     3.9789     3.9778     0.0011
 41 C      6.0242     6.0000    -0.0242     3.9709     3.9709     0.0000
 42 C      5.9742     6.0000     0.0258     3.9166     3.9166     0.0000
 43 C      5.9675     6.0000     0.0325     3.9573     3.9572     0.0002
 44 C      6.0302     6.0000    -0.0302     3.9946     3.9945     0.0001
 45 C      6.0198     6.0000    -0.0198     3.9941     3.9939     0.0002
 46 C      6.0184     6.0000    -0.0184     3.9880     3.9853     0.0027
 47 C      6.0155     6.0000    -0.0155     3.9794     3.9777     0.0017
 48 C      6.0305     6.0000    -0.0305     4.0032     4.0031     0.0001
 49 C      6.0226     6.0000    -0.0226     4.0025     4.0024     0.0001
 50 C      5.9959     6.0000     0.0041     3.9863     3.9863     0.0000
 51 C      6.0441     6.0000    -0.0441     3.9984     3.9978     0.0006
 52 C      6.0177     6.0000    -0.0177     3.9719     3.9717     0.0002
 53 C      6.0075     6.0000    -0.0075     3.9682     3.9626     0.0056
 54 C      6.0198     6.0000    -0.0198     3.9953     3.9952     0.0001
 55 C      6.0166     6.0000    -0.0166     3.9730     3.9685     0.0045
 56 C      5.9941     6.0000     0.0059     3.9657     3.9644     0.0013
 57 C      6.0256     6.0000    -0.0256     3.9914     3.9912     0.0002
 58 C      6.0005     6.0000    -0.0005     3.9841     3.9821     0.0020
 59 C      6.0262     6.0000    -0.0262     4.0061     4.0059     0.0001
 60 H      0.9380     1.0000     0.0620     0.9928     0.9928     0.0000
 61 C      6.0982     6.0000    -0.0982     4.0107     4.0107     0.0000
 62 H      0.9678     1.0000     0.0322     0.9888     0.9888     0.0000
 63 H      0.9604     1.0000     0.0396     0.9817     0.9817     0.0000
 64 C      5.8579     6.0000     0.1421     3.9976     3.9976    -0.0000
 65 O      8.2990     8.0000    -0.2990     2.2101     2.2101     0.0000
 66 H      0.9327     1.0000     0.0673     1.0049     1.0049     0.0000
 67 C      5.7188     6.0000     0.2812     4.3120     4.3120     0.0000
 68 C      6.3134     6.0000    -0.3134     3.4933     3.4933     0.0000
 69 O      8.1942     8.0000    -0.1942     2.3146     2.3146     0.0000
 70 H      0.9578     1.0000     0.0422     1.0025     1.0025     0.0000
 71 C      5.7221     6.0000     0.2779     4.3465     4.3465     0.0000
 72 H      0.9398     1.0000     0.0602     0.9925     0.9925     0.0000
 73 O      8.2996     8.0000    -0.2996     2.1988     2.1988     0.0000
 74 H      0.9614     1.0000     0.0386     1.0080     1.0080     0.0000
 75 O      8.1961     8.0000    -0.1961     2.3095     2.3095     0.0000
 76 C      5.8713     6.0000     0.1287     3.9849     3.9849     0.0000
 77 C      6.0618     6.0000    -0.0618     3.9899     3.9899     0.0000
 78 H      0.9772     1.0000     0.0228     1.0011     1.0011     0.0000
 79 H      0.9499     1.0000     0.0501     0.9917     0.9917     0.0000
 80 H      0.9646     1.0000     0.0354     0.9895     0.9895     0.0000
 81 O      7.9828     8.0000     0.0172     2.3911     1.8523     0.5388
 82 O      8.0006     8.0000    -0.0006     2.3736     1.8512     0.5224

  Mayer bond orders larger than 0.100000
B(  0-C ,  1-C ) :   1.1788 B(  0-C ,  3-C ) :   1.4391 B(  0-C ,  4-C ) :   1.2113 
B(  1-C ,  2-C ) :   1.4506 B(  1-C ,  5-C ) :   1.2149 B(  2-C ,  6-C ) :   1.1853 
B(  2-C ,  7-C ) :   1.2121 B(  3-C ,  8-C ) :   1.1794 B(  3-C ,  9-C ) :   1.2176 
B(  4-C , 10-C ) :   1.4490 B(  4-C , 11-C ) :   1.1735 B(  5-C , 11-C ) :   1.2203 
B(  5-C , 12-C ) :   1.3888 B(  6-C , 13-C ) :   1.2280 B(  6-C , 14-C ) :   1.4241 
B(  7-C ,  9-C ) :   1.3992 B(  7-C , 15-C ) :   1.2071 B(  8-C , 16-C ) :   1.4845 
B(  8-C , 17-C ) :   1.1758 B(  9-C , 18-C ) :   1.2149 B( 10-C , 16-C ) :   1.1770 
B( 10-C , 19-C ) :   1.2124 B( 11-C , 20-C ) :   1.4474 B( 12-C , 14-C ) :   1.2122 
B( 12-C , 21-C ) :   1.2117 B( 13-C , 15-C ) :   1.1629 B( 13-C , 22-C ) :   1.4392 
B( 14-C , 23-C ) :   1.1862 B( 15-C , 24-C ) :   1.4455 B( 16-C , 25-C ) :   1.1778 
B( 17-C , 18-C ) :   1.1832 B( 17-C , 26-C ) :   1.4801 B( 18-C , 27-C ) :   1.4394 
B( 19-C , 28-C ) :   1.2211 B( 19-C , 29-C ) :   1.3946 B( 20-C , 29-C ) :   1.2175 
B( 20-C , 30-C ) :   1.1737 B( 21-C , 30-C ) :   1.4520 B( 21-C , 31-C ) :   1.1775 
B( 22-C , 32-C ) :   1.1311 B( 22-C , 33-C ) :   1.2109 B( 23-C , 31-C ) :   1.1405 
B( 23-C , 32-C ) :   1.5298 B( 24-C , 27-C ) :   1.1724 B( 24-C , 34-C ) :   1.2149 
B( 25-C , 28-C ) :   1.1791 B( 25-C , 35-C ) :   1.4827 B( 26-C , 35-C ) :   1.1781 
B( 26-C , 36-C ) :   1.1800 B( 27-C , 37-C ) :   1.2157 B( 28-C , 38-C ) :   1.4367 
B( 29-C , 39-C ) :   1.2089 B( 30-C , 40-C ) :   1.2003 B( 31-C , 41-C ) :   1.4840 
B( 32-C , 42-C ) :   0.1516 B( 32-C , 68-C ) :   0.9401 B( 33-C , 34-C ) :   1.3657 
B( 33-C , 43-C ) :   1.2006 B( 34-C , 44-C ) :   1.2234 B( 35-C , 45-C ) :   1.1780 
B( 36-C , 37-C ) :   1.4451 B( 36-C , 46-C ) :   1.2134 B( 37-C , 44-C ) :   1.1703 
B( 38-C , 47-C ) :   1.2203 B( 38-C , 48-C ) :   1.1747 B( 39-C , 40-C ) :   1.1774 
B( 39-C , 48-C ) :   1.4533 B( 40-C , 49-C ) :   1.4474 B( 41-C , 49-C ) :   1.1756 
B( 41-C , 50-C ) :   1.1397 B( 42-C , 43-C ) :   1.1414 B( 42-C , 50-C ) :   1.5161 
B( 42-C , 68-C ) :   0.9397 B( 43-C , 51-C ) :   1.4550 B( 44-C , 52-C ) :   1.4386 
B( 45-C , 46-C ) :   1.2257 B( 45-C , 47-C ) :   1.4316 B( 46-C , 53-C ) :   1.3910 
B( 47-C , 54-C ) :   1.1775 B( 48-C , 55-C ) :   1.2138 B( 49-C , 56-C ) :   1.2155 
B( 50-C , 57-C ) :   1.1888 B( 51-C , 52-C ) :   1.1604 B( 51-C , 58-C ) :   1.2208 
B( 52-C , 53-C ) :   1.2161 B( 53-C , 59-C ) :   1.2111 B( 54-C , 55-C ) :   1.2141 
B( 54-C , 59-C ) :   1.4514 B( 55-C , 56-C ) :   1.3961 B( 56-C , 57-C ) :   1.2029 
B( 57-C , 58-C ) :   1.4298 B( 58-C , 59-C ) :   1.1864 B( 60-H , 61-C ) :   0.9680 
B( 61-C , 62-H ) :   0.9681 B( 61-C , 64-C ) :   1.1029 B( 61-C , 66-H ) :   0.9659 
B( 63-H , 64-C ) :   0.9629 B( 64-C , 65-O ) :   0.8940 B( 64-C , 70-H ) :   0.9520 
B( 65-O , 67-C ) :   1.2430 B( 67-C , 68-C ) :   0.8648 B( 67-C , 69-O ) :   2.1550 
B( 68-C , 71-C ) :   0.8826 B( 71-C , 73-O ) :   1.2379 B( 71-C , 75-O ) :   2.1523 
B( 72-H , 77-C ) :   0.9706 B( 73-O , 76-C ) :   0.8884 B( 74-H , 76-C ) :   0.9567 
B( 76-C , 77-C ) :   1.0862 B( 76-C , 80-H ) :   0.9608 B( 77-C , 78-H ) :   0.9629 
B( 77-C , 79-H ) :   0.9708 B( 81-O , 82-O ) :   1.8329 

-------
TIMINGS
-------

Total SCF time: 0 days 0 hours 2 min 11 sec 

Total time                  ....     131.723 sec
Sum of individual times     ....     130.388 sec  ( 99.0%)

SCF preparation             ....       1.499 sec  (  1.1%)
Fock matrix formation       ....     112.524 sec  ( 85.4%)
  Startup                   ....       0.443 sec  (  0.4% of F)
  Split-RI-J                ....       6.242 sec  (  5.5% of F)
  Chain of spheres X        ....      98.657 sec  ( 87.7% of F)
  XC integration            ....       5.881 sec  (  5.2% of F)
    XC Preparation          ....       0.000 sec  (  0.0% of XC)
    Basis function eval.    ....       1.106 sec  ( 18.8% of XC)
    Density eval.           ....       2.216 sec  ( 37.7% of XC)
    XC-Functional eval.     ....       0.159 sec  (  2.7% of XC)
    XC-Potential eval.      ....       1.228 sec  ( 20.9% of XC)
Diagonalization             ....       0.000 sec  (  0.0%)
Density matrix formation    ....       8.172 sec  (  6.2%)
Total Energy calculation    ....       0.383 sec  (  0.3%)
Population analysis         ....       0.668 sec  (  0.5%)
Orbital Transformation      ....       1.369 sec  (  1.0%)
Orbital Orthonormalization  ....       0.000 sec  (  0.0%)
DIIS solution               ....       5.773 sec  (  4.4%)
Finished LeanSCF after 132.2 sec

Maximum memory used throughout the entire LEANSCF-calculation: 255.2 MB


-------------------------------------------------------------------------------
                          DFT DISPERSION CORRECTION                            
                                                                               
                              DFTD3 V3.1  Rev 1                                
                              USING zero damping                               
-------------------------------------------------------------------------------
The omegaB97X-D3 functional is recognized. Fit by Chai et al.
Active option DFTDOPT                   ...         3   

molecular C6(AA) [au] = 128991.777891 


            DFT-D V3
 parameters
 s6 scaling factor         :     1.0000 
 rs6 scaling factor        :     1.2810 
 s8 scaling factor         :     1.0000 
 rs8 scaling factor        :     1.0940 
 Damping factor alpha6     :    14.0000 
 Damping factor alpha8     :    16.0000 
 ad hoc parameters k1-k3   :    16.0000     1.3333    -4.0000 

 Edisp/kcal,au: -49.964686336386  -0.079623787483 
 E6   /kcal   : -25.156751251 
 E8   /kcal   : -24.807935086 
 % E8         :  49.650937302 

-------------------------   ----------------
Dispersion correction           -0.079623787
-------------------------   ----------------


-------------------------   --------------------
FINAL SINGLE POINT ENERGY     -3007.323505381644
-------------------------   --------------------

                                *** OPTIMIZATION RUN DONE ***



           ************************************************************
           *        Program running with 28 parallel MPI-processes    *
           *              working on a common directory               *
           ************************************************************

------------------------------------------------------------------------------
                              ORCA PROPERTY CALCULATIONS
------------------------------------------------------------------------------

GBWName                                 ... c60_o2_17.gbw
Number of atoms                         ...     83
Number of basis functions               ...   1072
Max core memory                         ...   3500 MB

Electric properties:
Dipole moment                           ... YES
Quadrupole moment                       ...  NO
Static polarizability (Dipole/Dipole)   ...  NO
Static polarizability (Dipole/Quad.)    ...  NO
Static polarizability (Quad./Quad.)     ...  NO
Static polarizability (Velocity)        ...  NO

Atomic electric properties:
Dipole moment                           ...  NO
Quadrupole moment                       ...  NO
Static polarizability                   ...  NO

Choice of electric origin               ... Center of mass
Position of electric origin             ...    -0.195537     1.768763    -0.207071

General magnetic properties:
Magnetizability                         ...  NO

EPR properties:
g-Tensor (aka g-matrix)                 ...  NO
Zero-Field splitting spin-orbit         ...  NO
Zero-field splitting spin-spin          ...  NO
Hyperfine couplings                     ...  NO (   0 nuclei)
Quadrupole couplings                    ...  NO (   0 nuclei)
Contact density                         ...  NO (   0 nuclei)

NMR properties:
Chemical shifts                         ...  NO (   0 nuclei)
Spin-rotation constants                 ...  NO (   0 nuclei)
Spin-spin couplings                     ...  NO (   0 nuclei,    0 pairs)

Choice of magnetic origin               ... GIAO
Position of magnetic origin             ...     0.000000     0.000000     0.000000

Properties with geometric perturbations:
SCF Hessian                             ...  NO
IR spectrum                             ...  NO
VCD spectrum                            ...  NO
X-ray spectroscopy properties:
SCF XES/XAS/RIXS spectra                ...  NO


-------------
DIPOLE MOMENT
-------------

Method             : SCF
Type of density    : Electron Density
Multiplicity       :   2
Irrep              :   0
Energy             : -3007.2438815941604844 Eh
Relativity type    : 
Basis              : AO
                                X                 Y                 Z
Electronic contribution:     11.241735922     -47.100042936      -8.160706934
Nuclear contribution   :    -11.612355268      49.729222674       7.959969198
                        -----------------------------------------
Total Dipole Moment    :     -0.370619346       2.629179739      -0.200737737
                        -----------------------------------------
Magnitude (a.u.)       :      2.662750540
Magnitude (Debye)      :      6.768173996



--------------------
Rotational spectrum 
--------------------
 
Rotational constants in cm-1:             0.002125             0.001298             0.001168 
Rotational constants in MHz :            63.718958            38.914499            35.008970 

Dipole components along the rotational axes: 
x,y,z [a.u.] :    -2.653194     0.225376     0.002415 
x,y,z [Debye]:    -6.743884     0.572859     0.006138 

 

Dipole moment calculation done in   0.1 sec 

Maximum memory used throughout the entire PROP-calculation: 128.9 MB

--------------------------------
SUGGESTED CITATIONS FOR THIS RUN
--------------------------------

Below you find a list of papers that are relevant to this ORCA run
We neither can nor want to force you to cite these papers, but we appreciate if you do
You receive ORCA, which is the product of decades of hard work by many enthusiastic individuals, for free
The only thing we kindly ask in return is that you cite our papers,
We deeply appreciate it, if you show your appreciation for ORCA by not just citing the generic ORCA reference.

Please note that relegating all ORCA citations to the supporting information does *not* help us.
SI sections are not indexed - citations you put there will not count into any citation statistics
But we need these citations in order to attract the funding resources that allow us to do what we are doing

Therefore, if you are a happy ORCA user, please consider citing a few of the papers listed below in the main body of your paper

In addition to the list printed below, the program has created the file c60_o2_17.bibtex that contains the list in bibtex format
You can import this file easily into all common literature databanks and citation aid programs


List of essential papers. We consider these as the minimum necessary citations

  1. Neese,F.
     Software update: the ORCA program system, version 5.0
     WIRES Comput. Molec. Sci., 2022 12(1)e1606
     doi.org/10.1002/wcms.1606

List of papers to cite with high priority. The work reported in these papers was absolutely
necessary for this run to complete.
Our perspective: the developers of density functionals and basis sets usually get cited in chemistry papers
Good! But without the algorithms to do something with them, the functionals or basis sets would not do anything.
Hence, in our opinion, the algorithm design and method developments papers are equally worthy of getting cited

  1. Neese,F.
     An improvement of the resolution of the identity approximation for the formation of the Coulomb matrix
     J. Comp. Chem., 2003 24(14)1740-1747
     doi.org/10.1002/jcc.10318
  2. Neese,F.; Wennmohs,F.; Hansen,A.; Becker,U.
     Efficient, approximate and parallel Hartree-Fock and hybrid DFT calculations. A 'chain-of-spheres' algorithm for the Hartree-Fock exchange
     Chem. Phys., 2009 356(1-3)98-109
     doi.org/10.1016/j.chemphys.2008.10.036
  3. Helmich-Paris,B.; de Souza,B.; Neese,F.; Izsák,R.
     An improved chain of spheres for exchange algorithm
     J. Chem. Phys., 2021 155 104109
     doi.org/doi: 10.1063/5.0058766.
  4. Neese,F.
     The SHARK Integral Generation and Digestion System
     J. Comp. Chem., 2022  1-16
     doi.org/10.1002/jcc.26942
  5. Grimme,S.; Antony,J.; Ehrlich,S.; Krieg,H.
     A consistent and accurate ab initio parametrization of density functional dispersion correction (DFT-D) for the 94 elements H-Pu
     J. Chem. Phys., 2010 132 154104
     doi.org/10.1063/1.3382344

List of suggested additional citations. These are papers that are important in the 'surrounding' of 
of this run, or papers that preceded the highly important papers. If you like your results we are grateful for a citation.

  1. Izsak,R.; Neese,F.
     An overlap fitted chain of spheres exchange method
     J. Chem. Phys., 2011 135 144105
     doi.org/10.1063/1.3646921
  2. Izsak,R.; Hansen,A.; Neese,F.
     The resolution of identity and chain of spheres approximations for the LPNO-CCSD singles Fock term
     Molec. Phys., 2012 110 2413-2417
     doi.org/10.1080/00268976.2012.687466
  3. Neese,F.
     The ORCA program system
     WIRES Comput. Molec. Sci., 2012 2(1)73-78
     doi.org/10.1002/wcms.81
  4. Izsak,R.; Neese,F.; Klopper,W.
     Robust fitting techniques in the chain of spheres approximation to the Fock exchange: The role of the complementary space
     J. Chem. Phys., 2013 139 
     doi.org/10.1063/1.4819264
  5. Neese,F.
     Software update: the ORCA program system, version 4.0
     WIRES Comput. Molec. Sci., 2018 8(1)1-6
     doi.org/10.1002/wcms.1327
  6. Neese,F.; Wennmohs,F.; Becker,U.; Riplinger,C.
     The ORCA quantum chemistry program package
     J. Chem. Phys., 2020 152 Art. No. L224108
     doi.org/10.1063/5.0004608

Timings for individual modules:

Sum of individual times          ...     6617.599 sec (= 110.293 min)
Startup calculation              ...      244.462 sec (=   4.074 min)   3.7 %
SCF iterations                   ...     4892.395 sec (=  81.540 min)  73.9 %
Property calculations            ...        1.306 sec (=   0.022 min)   0.0 %
SCF Gradient evaluation          ...     1473.011 sec (=  24.550 min)  22.3 %
Geometry relaxation              ...        6.424 sec (=   0.107 min)   0.1 %
                             ****ORCA TERMINATED NORMALLY****
TOTAL RUN TIME: 0 days 1 hours 51 minutes 5 seconds 76 msec
