
                                 *****************
                                 * O   R   C   A *
                                 *****************

                                            #,                                       
                                            ###                                      
                                            ####                                     
                                            #####                                    
                                            ######                                   
                                           ########,                                 
                                     ,,################,,,,,                         
                               ,,#################################,,                 
                          ,,##########################################,,             
                       ,#########################################, ''#####,          
                    ,#############################################,,   '####,        
                  ,##################################################,,,,####,       
                ,###########''''           ''''###############################       
              ,#####''   ,,,,##########,,,,          '''####'''          '####       
            ,##' ,,,,###########################,,,                        '##       
           ' ,,###''''                  '''############,,,                           
         ,,##''                                '''############,,,,        ,,,,,,###''
      ,#''                                            '''#######################'''  
     '                                                          ''''####''''         
             ,#######,   #######,   ,#######,      ##                                
            ,#'     '#,  ##    ##  ,#'     '#,    #''#        ,####,   ,####,        
            ##       ##  ##   ,#'  ##            #'  '#       #'       #'  '#        
            ##       ##  #######   ##           ,######,      #####,   #    #        
            '#,     ,#'  ##    ##  '#,     ,#' ,#      #,     #,   #   #,  ,#        
             '#######'   ##     ##  '#######'  #'      '#     '####' # '####'        



                #########################################################
                #                        -***-                          #
                #          Department of theory and spectroscopy        #
                #                                                       #
                #                      Frank Neese                      #
                #                                                       #
                #     Directorship, Architecture, Infrastructure        #
                #                    SHARK, DRIVERS                     #
                #        Core code/Algorithms in most modules           #
                #                                                       #
                #        Max Planck Institute fuer Kohlenforschung      #
                #                Kaiser Wilhelm Platz 1                 #
                #                 D-45470 Muelheim/Ruhr                 #
                #                      Germany                          #
                #                                                       #
                #                  All rights reserved                  #
                #                        -***-                          #
                #########################################################


                         Program Version 6.0.1  -  RELEASE   -


 With contributions from (in alphabetic order):
[Max-Planck-Institut fuer Kohlenforschung]                               
  Daniel Aravena         : Magnetic Suceptibility                        
  Michael Atanasov       : Ab Initio Ligand Field Theory (pilot matlab implementation)
  Alexander A. Auer      : GIAO ZORA, VPT2 properties, NMR spectrum      
  Ute Becker             : All parallelization in ORCA, NUMFREQ, NUMCALC 
  Giovanni Bistoni       : ED, misc. LED, open-shell LED, HFLD           
  Martin Brehm           : Molecular dynamics                            
  Dmytro Bykov           : pre 5.0 version of the SCF Hessian            
  Marcos Casanova-Páez   : Triplet and SCS-CIS(D). UHF-(DLPNO)-IP/EA/STEOM-CCSD. UHF-CVS-IP/STEOM-CCSD   
  Vijay G. Chilkuri      : MRCI spin determinant printing, contributions to CSF-ICE 
  Pauline Colinet        : FMM embedding                                 
  Dipayan Datta          : RHF DLPNO-CCSD density                        
  Achintya Kumar Dutta   : EOM-CC, STEOM-CC                              
  Nicolas Foglia         : Exact transition moments, OPA infrastructure, MCD improvements    
  Dmitry Ganyushin       : Spin-Orbit,Spin-Spin,Magnetic field MRCI      
  Miquel Garcia-Rates    : C-PCM and meta-GGA Hessian, CCSD/C-PCM, Gaussian charge scheme 
  Tiago L. C. Gouveia    : GS-ROHF, GS-ROCIS                             
  Yang Guo               : DLPNO-NEVPT2, F12-NEVPT2, CIM, IAO-localization        
  Andreas Hansen         : Spin unrestricted coupled pair/coupled cluster methods 
  Ingolf Harden          : AUTO-CI MPn and infrastructure                
  Benjamin Helmich-Paris : MC-RPA, TRAH-(SCF,CASSCF), AVAS, COSX integrals, SCF dyn. polar. 
  Lee Huntington         : MR-EOM, pCC                                   
  Robert Izsak           : Overlap fitted RIJCOSX, COSX-SCS-MP3, EOM     
  Riya Kayal             : Wick's Theorem for AUTO-CI, AUTO-CI UHF-CCSDT 
  Emily Kempfer          : AUTO-CI, RHF CISDT and CCSDT                  
  Christian Kollmar      : KDIIS, OOCD, Brueckner-CCSD(T), CCSD density, CASPT2, CASPT2-K, improved NEVPT2 
  Axel Koslowski         : Symmetry handling                             
  Simone Kossmann        : meta-GGA functionals, TD-DFT gradient, OOMP2, (MP2 Hessian; deprecated post 5.0) 
  Lucas Lang             : DCDCAS                                        
  Marvin Lechner         : AUTO-CI (C++ implementation), FIC-MRCC        
  Spencer Leger          : CASSCF response                               
  Dagmar Lenk            : GEPOL surface, SMD, ORCA-2-JSON               
  Dimitrios Liakos       : Extrapolation schemes; Compound Job, initial MDCI parallelization 
  Dimitrios Manganas     : Further ROCIS development; embedding schemes. LFT, Crystal Embedding 
  Dimitrios Pantazis     : SARC Basis sets                               
  Anastasios Papadopoulos: AUTO-CI, single reference methods and gradients 
  Taras Petrenko         : pre 6.0 DFT Hessian and TD-DFT gradient, (ASA, deprecated), ECA, 1-Electron XAS/XES, NRVS 
  Peter Pinski           : DLPNO-MP2, DLPNO-MP2 Gradient                 
  Christoph Reimann      : Effective Core Potentials                     
  Marius Retegan         : Local ZFS, SOC                                
  Christoph Riplinger    : Optimizer, TS searches, QM/MM, DLPNO-CCSD(T), (RO)-DLPNO pert. Triples 
  Michael Roemelt        : Original ROCIS implementation                 
  Masaaki Saitow         : Open-shell DLPNO-CCSD energy and density      
  Barbara Sandhoefer     : DKH picture change effects                    
  Kantharuban Sivalingam : CASSCF convergence/infrastructure, NEVPT2 and variants, FIC-MRCI 
  Bernardo de Souza      : ESD, SOC TD-DFT                               
  Georgi L. Stoychev     : AutoAux, RI-MP2 NMR, DLPNO-MP2 response, X2C  
  Van Anh Tran           : RI-MP2 g-tensors                              
  Willem Van den Heuvel  : Paramagnetic NMR                              
  Zikuan Wang            : NOTCH, Electric field optimization            
  Frank Wennmohs         : Technical directorship and infrastructure     
  Hang Xu                : AUTO-CI-Response properties                   
                                                                         
[FACCTs GmbH]                                                            
  Markus Bursch, Miquel Garcia-Rates, Christoph Riplinger, Bernardo de Souza, Georgi L. Stoychev 
                                                                 
  APM, Basis sets (HGBS, AHGBS, def-TZVP (Ac-Lr), def2-XVPD (La-Lu)), CI-OPT, improved COSX, DLPNO-Multilevel,           
  DOCKER, DRACO, updates on ESD, GOAT, IRC, LR-CPCM, MBIS, meta-GGA TD-DFT gradient, ML-optimized integration grids, 
  MM, NACMEs, nearIR, NEB, NEB-TS, NL-DFT gradient (VV10), 2- and 3-layer-ONIOM, interface openCOSMO-RS, QMMM,   
  Crystal-QMMM, SF, symmetry and pop. for TD-DFT, r2SCAN hybrids, SOLVATOR                                   
                                                                         
[Other institutions]                                                     
  V. Asgeirsson          : NEB                                           
  Christoph Bannwarth    : sTDA-DFT, sTD-DFT, PBEh-3c, B97-3c, D3        
  Sebastian Ehlert       : rSCAN, r2SCAN, r2SCAN-3c, D4, dhf basis sets  
  Marvin Friede          : D4 for Fr, Ra, Ac-Lr                          
  Lars Goerigk           : TD-DFT with DH, B97 family of functionals     
  Stefan Grimme          : VdW corrections, initial TS optimization, DFT functionals, gCP, sTDA/sTD-DF 
  Waldemar Hujo          : DFT-NL                                        
  H. Jonsson             : NEB                                           
  Holger Kruse           : gCP                                           
  Marcel Mueller         : wB97X-3c, vDZP basis set                      
  Hagen Neugebauer       : wr2SCAN                                       
  Tobias Risthaus        : range-separated hybrid DFT                    
  Lukas Wittmann         : regularized MP2, r2SCAN double-hybrids, wr2SCAN        
                                                                         
We gratefully acknowledge several colleagues who have allowed us to      
interface, adapt or use parts of their codes:                            
  Ed Valeev, F. Pavosevic, A. Kumar             : LibInt (2-el integral package), F12 methods 
  Garnet Chan, S. Sharma, J. Yang, R. Olivares  : DMRG                   
  Ulf Ekstrom                                   : XCFun DFT Library      
  Mihaly Kallay                                 : mrcc  (arbitrary order and MRCC methods)
  Frank Weinhold                                : gennbo (NPA and NBO analysis)           
  Simon Mueller                                 : openCOSMO-RS                            
  Christopher J. Cramer and Donald G. Truhlar   : smd solvation model                     
  S Lehtola, MJT Oliveira, MAL Marques          : LibXC Library                           
  Liviu Ungur et al                             : ANISO software                          


 Your calculation uses the libint2 library for the computation of 2-el integrals
 For citations please refer to: http://libint.valeyev.net

 Your ORCA version has been built with support for libXC version: 6.2.2
 For citations please refer to: https://libxc.gitlab.io

 This ORCA versions uses:
   CBLAS   interface :  Fast vector & matrix operations
   LAPACKE interface :  Fast linear algebra routines
   SCALAPACK package :  Parallel linear algebra routines
   Shared memory     :  Shared parallel matrices
   BLAS/LAPACK       :  OpenBLAS 0.3.27  USE64BITINT DYNAMIC_ARCH NO_AFFINITY SkylakeX SINGLE_THREADED
        Core in use  :  SkylakeX
   Copyright (c) 2011-2014, The OpenBLAS Project


Your calculation utilizes the atom-pairwise dispersion correction
with the Becke-Johnson damping scheme (D3BJ)


Warning: RI is on but no J-basis has been assigned. Assigning Def2/J (nothing to worry about!)
================================================================================

----- Orbital basis set information -----
Your calculation utilizes the basis: def2-SVP
   F. Weigend and R. Ahlrichs, Phys. Chem. Chem. Phys. 7, 3297 (2005).

----- AuxJ basis set information -----
Your calculation utilizes the auxiliary basis: def2/J
   F. Weigend, Phys. Chem. Chem. Phys. 8, 1057 (2006).

================================================================================
                                        WARNINGS
                       Please study these warnings very carefully!
================================================================================

WARNING: Old DensityContainer found on disk!
         Will remove this file - 
         If you want to keep old densities, please start your calculation with a different basename. 


WARNING: Geometry Optimization
  ===> : Switching off AutoStart
         For restart on a previous wavefunction, please use MOREAD

================================================================================
                                       INPUT FILE
================================================================================
NAME = zinc_hydrate_1.inp
|  1> ! B3LYP def2-SVP Opt TightSCF ALLPOP KEEPDENS D3BJ CPCM(WATER)
|  2> 
|  3> %pal
|  4> nprocs 30
|  5> end
|  6> 
|  7> * xyz 2 1
|  8> Zn         1.00193        0.97190        1.15225
|  9> H         -0.43578        0.00828        0.58118
| 10> O         -0.66189        0.92869        0.37719
| 11> H         -1.63102        0.95976        0.45168
| 12> H          2.64838        0.21573        1.29018
| 13> O          2.75994        0.89183        1.98181
| 14> H          3.52039        1.41362        1.68939
| 15> H          1.00134        2.95720       -0.65059
| 16> O          0.94780        2.67589        0.32453
| 17> H          1.85358        2.67106        0.66631
| 18> H          1.06390       -1.50572        2.04945
| 19> O          1.15830       -0.61680        2.43366
| 20> H          1.96617       -0.64591        2.97426
| 21> H         -0.58812        1.06554        3.08543
| 22> O         -0.34318        1.74954        2.43690
| 23> H          0.10842        2.45270        2.94433
| 24> H          1.23277       -0.24127       -1.28399
| 25> O          1.66947        0.39007       -0.62760
| 26> H          2.62027        0.43735       -0.80936
| 27> *
| 28> 
| 29>                          ****END OF INPUT****
================================================================================

                       *****************************
                       * Geometry Optimization Run *
                       *****************************

Geometry optimization settings:
Update method            Update   .... BFGS
Choice of coordinates    CoordSys .... (2022) Redundant Internals
Initial Hessian          InHess   .... Almloef's Model
Max. no of cycles        MaxIter  .... 57

Convergence Tolerances:
Energy Change            TolE     ....  5.0000e-06 Eh
Max. Gradient            TolMAXG  ....  3.0000e-04 Eh/bohr
RMS Gradient             TolRMSG  ....  1.0000e-04 Eh/bohr
Max. Displacement        TolMAXD  ....  4.0000e-03 bohr
RMS Displacement         TolRMSD  ....  2.0000e-03 bohr
Strict Convergence                .... False

------------------------------------------------------------------------------
                        ORCA OPTIMIZATION COORDINATE SETUP
------------------------------------------------------------------------------

The optimization will be done in redundant internal coordinates (2022)
Making redundant internal coordinates   ...  (2022 redundants) done
Evaluating the initial hessian          ...  (Almloef) done
Evaluating the coordinates              ...  done
Calculating the B-matrix                .... done
Calculating the G-matrix                .... done
Diagonalizing the G-matrix              .... done
The first mode is                       ....  124
The number of degrees of freedom        ....   51

    -----------------------------------------------------------------
                    Redundant Internal Coordinates


    -----------------------------------------------------------------
         Definition                    Initial Value    Approx d2E/dq
    -----------------------------------------------------------------
      1. B(H   1,Zn  0)                  1.8226         0.247063   
      2. B(O   2,Zn  0)                  1.8360         1.100124   
      3. B(O   2,H   1)                  0.9695         0.502159   
      4. B(H   3,O   2)                  0.9725         0.496647   
      5. B(H   4,Zn  0)                  1.8170         0.252122   
      6. B(O   5,Zn  0)                  1.9456         0.735613   
      7. B(O   5,H   4)                  0.9736         0.494606   
      8. B(H   6,O   5)                  0.9675         0.505824   
      9. B(O   8,H   7)                  1.0163         0.422812   
     10. B(O   8,Zn  0)                  1.8952         0.885216   
     11. B(H   9,O   8)                  0.9681         0.504658   
     12. B(H   9,O   5)                  2.3912         0.002708   
     13. B(H   9,Zn  0)                  1.9618         0.148141   
     14. B(O  11,H  10)                  0.9730         0.495728   
     15. B(O  11,Zn  0)                  2.0471         0.506655   
     16. B(O  11,H   4)                  2.0545         0.009327   
     17. B(H  12,O  11)                  0.9725         0.496626   
     18. B(H  12,O   5)                  1.9949         0.011610   
     19. B(O  14,H  13)                  0.9739         0.494108   
     20. B(O  14,Zn  0)                  2.0160         0.567822   
     21. B(H  15,O  14)                  0.9777         0.487255   
     22. B(O  17,H   4)                  2.1602         0.006326   
     23. B(O  17,H  16)                  1.0100         0.432673   
     24. B(O  17,Zn  0)                  1.9880         0.629487   
     25. B(H  18,O  17)                  0.9692         0.502730   
     26. A(O   2,Zn  0,O  14)           70.9398         0.596762   
     27. A(H   4,Zn  0,O  14)          135.7845         0.420887   
     28. A(H   9,Zn  0,O  14)           96.5112         0.383253   
     29. A(O   5,Zn  0,O  14)          110.3079         0.552552   
     30. A(O  11,Zn  0,O  14)           87.2168         0.515035   
     31. A(O   2,Zn  0,O  11)          108.3737         0.583831   
     32. A(O   5,Zn  0,O  17)           93.8005         0.563496   
     33. A(O   8,Zn  0,O  17)           83.2067         0.583800   
     34. A(O   5,Zn  0,H   9)           75.4627         0.401011   
     35. A(O   8,Zn  0,O  14)           84.9763         0.572388   
     36. A(H   1,Zn  0,O  17)           80.1895         0.427168   
     37. A(H   4,Zn  0,H   9)           89.1912         0.312389   
     38. A(O   2,Zn  0,H   4)          147.5005         0.474480   
     39. A(O   2,Zn  0,O   8)           79.0999         0.650444   
     40. A(H   1,Zn  0,O   5)          145.5526         0.439306   
     41. A(H   9,Zn  0,O  17)           83.4512         0.390200   
     42. A(H   4,Zn  0,O   5)           29.7422         0.440916   
     43. A(H   1,Zn  0,H   9)          136.2845         0.311367   
     44. A(O   2,Zn  0,H   9)          108.0126         0.430769   
     45. A(O   2,Zn  0,O  17)           85.3804         0.608750   
     46. A(O  14,Zn  0,O  17)          155.1547         0.536490   
     47. A(O   8,Zn  0,H   9)           29.0085         0.414363   
     48. A(H   4,Zn  0,O  17)           69.0163         0.428723   
     49. A(H   1,Zn  0,H   4)          121.2345         0.339807   
     50. A(H   1,Zn  0,O  11)           81.1449         0.410955   
     51. A(H   1,Zn  0,O   2)           30.7300         0.472715   
     52. A(H   1,Zn  0,O   8)          108.4215         0.454296   
     53. A(H   4,Zn  0,O  11)           63.9147         0.412435   
     54. A(O   5,Zn  0,O  11)           68.4155         0.540746   
     55. A(O   8,Zn  0,O  11)          166.7514         0.560077   
     56. A(H   9,Zn  0,O  11)          142.5695         0.375759   
     57. A(H   4,Zn  0,O   8)          115.6716         0.455975   
     58. A(O   5,Zn  0,O   8)          104.4207         0.601560   
     59. A(O  11,Zn  0,O  17)          107.9178         0.525094   
     60. A(H   1,Zn  0,O  14)           82.9510         0.419368   
     61. A(Zn  0,H   1,O   2)           75.4012         0.328207   
     62. A(Zn  0,O   2,H   1)           73.8688         0.456650   
     63. A(H   1,O   2,H   3)          104.2787         0.317620   
     64. A(Zn  0,O   2,H   3)          150.4596         0.455733   
     65. A(Zn  0,H   4,O   5)           82.4588         0.328484   
     66. A(H   4,O   5,H   6)          104.4700         0.317783   
     67. A(Zn  0,O   5,H   6)          123.9976         0.425192   
     68. A(Zn  0,O   5,H   4)           67.7990         0.423490   
     69. A(H   7,O   8,H   9)          106.9070         0.309689   
     70. A(Zn  0,O   8,H   9)           79.3157         0.439395   
     71. A(Zn  0,O   8,H   7)          131.7922         0.425639   
     72. A(Zn  0,H   9,O   8)           71.6758         0.302297   
     73. A(H  10,O  11,H  12)          105.8284         0.316952   
     74. A(Zn  0,O  11,H  12)          115.7638         0.396703   
     75. A(Zn  0,O  11,H  10)          117.0289         0.396577   
     76. A(H  13,O  14,H  15)          106.0029         0.315803   
     77. A(Zn  0,O  14,H  15)          107.4550         0.403386   
     78. A(Zn  0,O  14,H  13)          108.7375         0.404381   
     79. A(H  16,O  17,H  18)          109.4379         0.310652   
     80. A(Zn  0,O  17,H  18)          118.8852         0.413093   
     81. A(Zn  0,O  17,H  16)          128.2872         0.402270   
     82. D(O   2,H   1,Zn  0,H   4)   -155.5252         0.003513   
     83. D(O   2,H   1,Zn  0,O  17)    -97.5232         0.003513   
     84. D(O   2,H   1,Zn  0,O  14)     64.1554         0.003513   
     85. D(O   2,H   1,Zn  0,O  11)    152.4217         0.003513   
     86. D(O   2,H   1,Zn  0,H   9)    -27.9085         0.003513   
     87. D(O   2,H   1,Zn  0,O   8)    -18.1331         0.003513   
     88. D(O   2,H   1,Zn  0,O   5)   -179.8701         0.003513   
     89. D(H   1,O   2,Zn  0,O  11)    -28.8170         0.009156   
     90. D(H   1,O   2,Zn  0,H   4)     41.2472         0.009156   
     91. D(H   1,O   2,Zn  0,O  14)   -109.0937         0.009156   
     92. D(H   3,O   2,H   1,Zn  0)   -149.4210         0.316054   
     93. D(H   1,O   2,Zn  0,O  17)     78.5443         0.009156   
     94. D(H   3,O   2,Zn  0,H   1)     90.5949         0.009156   
     95. D(H   3,O   2,Zn  0,H   4)    131.8421         0.009156   
     96. D(H   3,O   2,Zn  0,O   8)   -106.9049         0.009156   
     97. D(H   3,O   2,Zn  0,O  11)     61.7779         0.009156   
     98. D(H   3,O   2,Zn  0,H   9)   -109.2903         0.009156   
     99. D(H   1,O   2,Zn  0,H   9)    160.1148         0.009156   
    100. D(H   1,O   2,Zn  0,O   8)    162.5002         0.009156   
    101. D(O   5,H   4,Zn  0,O  14)    -37.2888         0.003809   
    102. D(O   5,H   4,Zn  0,O  17)    144.5246         0.003809   
    103. D(O   5,H   4,Zn  0,O  11)    -91.7891         0.003809   
    104. D(O   5,H   4,Zn  0,O   8)     73.4850         0.003809   
    105. D(O   5,H   4,Zn  0,H   9)     61.2291         0.003809   
    106. D(O   5,H   4,Zn  0,O   2)   -175.1687         0.003809   
    107. D(O   5,H   4,Zn  0,H   1)   -151.9643         0.003809   
    108. D(H   4,O   5,Zn  0,O  11)     74.8841         0.005175   
    109. D(H   4,O   5,Zn  0,H   9)   -115.1158         0.005175   
    110. D(H   4,O   5,Zn  0,O   8)   -116.8464         0.005175   
    111. D(H   4,O   5,Zn  0,O  14)    153.2252         0.005175   
    112. D(H   6,O   5,H   4,Zn  0)   -121.2250         0.424337   
    113. D(H   4,O   5,Zn  0,H   1)     45.2755         0.005175   
    114. D(H   6,O   5,O   2,H   3)   -135.3705         0.001500   
    115. D(H   6,O   5,O   2,H   1)    137.4227         0.001500   
    116. D(H   6,O   5,Zn  0,O  17)     59.9896         0.005175   
    117. D(H   6,O   5,Zn  0,O  14)   -113.8930         0.005175   
    118. D(H   4,O   5,O   2,H   3)    133.1367         0.001500   
    119. D(H   6,O   5,Zn  0,O  11)    167.7659         0.005175   
    120. D(H   6,O   5,Zn  0,H   9)    -22.2340         0.005175   
    121. D(H   6,O   5,Zn  0,O   8)    -23.9646         0.005175   
    122. D(H   6,O   5,Zn  0,H   4)     92.8818         0.005175   
    123. D(H   4,O   5,O   2,H   1)     45.9300         0.001500   
    124. D(H   6,O   5,Zn  0,H   1)    138.1573         0.005175   
    125. D(H   4,O   5,Zn  0,O  17)    -32.8922         0.005175   
    126. D(H   9,O   8,Zn  0,O   2)   -175.3182         0.006404   
    127. D(H   9,O   8,Zn  0,H   1)   -165.9977         0.006404   
    128. D(H   7,O   8,Zn  0,O  17)     14.4588         0.006404   
    129. D(H   7,O   8,Zn  0,O  14)   -143.6444         0.006404   
    130. D(H   7,O   8,Zn  0,O  11)    162.2332         0.006404   
    131. D(H   7,O   8,Zn  0,H   9)    103.1973         0.006404   
    132. D(H   7,O   8,Zn  0,O   5)    106.6533         0.006404   
    133. D(H   7,O   8,Zn  0,H   1)    -62.8004         0.006404   
    134. D(H   7,O   8,Zn  0,O   2)    -72.1209         0.006404   
    135. D(H   7,O   8,Zn  0,H   4)     77.2401         0.006404   
    136. D(Zn  0,H   9,O   8,H   7)   -130.6532         0.355018   
    137. D(O   8,H   9,Zn  0,O  17)     87.7938         0.002244   
    138. D(O   8,H   9,Zn  0,O  14)    -67.1960         0.002244   
    139. D(O   8,H   9,Zn  0,O  11)   -161.1358         0.002244   
    140. D(O   8,H   9,Zn  0,O   5)   -176.5422         0.002244   
    141. D(O   8,H   9,Zn  0,H   4)    156.7630         0.002244   
    142. D(O   8,H   9,Zn  0,O   2)      4.8346         0.002244   
    143. D(O   8,H   9,Zn  0,H   1)     19.4011         0.002244   
    144. D(H  10,O  11,Zn  0,H   1)     45.8246         0.003164   
    145. D(H  12,O  11,Zn  0,H   4)     40.3693         0.003164   
    146. D(H  12,O  11,Zn  0,O   2)   -173.8513         0.003164   
    147. D(H  12,O  11,Zn  0,H   1)    171.7140         0.003164   
    148. D(H  10,O  11,Zn  0,O  17)    -30.7835         0.003164   
    149. D(H  10,O  11,Zn  0,O  14)    129.1189         0.003164   
    150. D(H  10,O  11,Zn  0,H   9)   -133.7999         0.003164   
    151. D(H  10,O  11,Zn  0,O   8)   -176.9693         0.003164   
    152. D(H  10,O  11,Zn  0,O   5)   -117.7454         0.003164   
    153. D(H  10,O  11,Zn  0,H   4)    -85.5201         0.003164   
    154. D(H  10,O  11,Zn  0,O   2)     60.2594         0.003164   
    155. D(H  15,O  14,Zn  0,O   2)   -146.5802         0.003497   
    156. D(H  15,O  14,Zn  0,H   1)   -175.6948         0.003497   
    157. D(H  13,O  14,Zn  0,O  17)    117.4794         0.003497   
    158. D(H  13,O  14,Zn  0,O  11)    -11.4292         0.003497   
    159. D(H  13,O  14,Zn  0,H   9)   -154.0507         0.003497   
    160. D(H  13,O  14,Zn  0,O   8)    179.2853         0.003497   
    161. D(H  13,O  14,Zn  0,O   5)    -77.1798         0.003497   
    162. D(H  13,O  14,Zn  0,H   4)    -58.4883         0.003497   
    163. D(H  13,O  14,Zn  0,O   2)     99.1002         0.003497   
    164. D(H  13,O  14,Zn  0,H   1)     69.9856         0.003497   
    165. D(H  18,O  17,Zn  0,H   4)    -33.5379         0.004072   
    166. D(H  18,O  17,Zn  0,O   2)    166.8697         0.004072   
    167. D(H  18,O  17,Zn  0,H   1)   -162.5833         0.004072   
    168. D(H  16,O  17,Zn  0,O  14)    -53.6424         0.004072   
    169. D(H  16,O  17,Zn  0,O  11)     71.5870         0.004072   
    170. D(H  16,O  17,Zn  0,H   9)   -145.0020         0.004072   
    171. D(H  16,O  17,Zn  0,O   8)   -115.7924         0.004072   
    172. D(H  16,O  17,Zn  0,O   5)    140.1180         0.004072   
    173. D(H  16,O  17,Zn  0,H   4)    123.3470         0.004072   
    174. D(H  16,O  17,Zn  0,O   2)    -36.2454         0.004072   
    175. D(H  16,O  17,Zn  0,H   1)     -5.6984         0.004072   
    -----------------------------------------------------------------

Number of atoms                         .... 19
Number of degrees of freedom            .... 175


         *************************************************************
         *                GEOMETRY OPTIMIZATION CYCLE   1            *
         *************************************************************
---------------------------------
CARTESIAN COORDINATES (ANGSTROEM)
---------------------------------
  Zn     1.001930    0.971900    1.152250
  H     -0.435780    0.008280    0.581180
  O     -0.661890    0.928690    0.377190
  H     -1.631020    0.959760    0.451680
  H      2.648380    0.215730    1.290180
  O      2.759940    0.891830    1.981810
  H      3.520390    1.413620    1.689390
  H      1.001340    2.957200   -0.650590
  O      0.947800    2.675890    0.324530
  H      1.853580    2.671060    0.666310
  H      1.063900   -1.505720    2.049450
  O      1.158300   -0.616800    2.433660
  H      1.966170   -0.645910    2.974260
  H     -0.588120    1.065540    3.085430
  O     -0.343180    1.749540    2.436900
  H      0.108420    2.452700    2.944330
  H      1.232770   -0.241270   -1.283990
  O      1.669470    0.390070   -0.627600
  H      2.620270    0.437350   -0.809360

----------------------------
CARTESIAN COORDINATES (A.U.)
----------------------------
  NO LB      ZA    FRAG     MASS         X           Y           Z
   0 Zn   30.0000    0    65.380    1.893373    1.836625    2.177437
   1 H     1.0000    0     1.008   -0.823505    0.015647    1.098271
   2 O     8.0000    0    15.999   -1.250791    1.754970    0.712786
   3 H     1.0000    0     1.008   -3.082181    1.813684    0.853552
   4 H     1.0000    0     1.008    5.004713    0.407671    2.438087
   5 O     8.0000    0    15.999    5.215531    1.685314    3.745078
   6 H     1.0000    0     1.008    6.652573    2.671355    3.192484
   7 H     1.0000    0     1.008    1.892258    5.588298   -1.229437
   8 O     8.0000    0    15.999    1.791082    5.056699    0.613273
   9 H     1.0000    0     1.008    3.502759    5.047572    1.259143
  10 H     1.0000    0     1.008    2.010480   -2.845398    3.872899
  11 O     8.0000    0    15.999    2.188870   -1.165583    4.598951
  12 H     1.0000    0     1.008    3.715523   -1.220593    5.620537
  13 H     1.0000    0     1.008   -1.111386    2.013579    5.830618
  14 O     8.0000    0    15.999   -0.648516    3.306151    4.605074
  15 H     1.0000    0     1.008    0.204884    4.634931    5.563977
  16 H     1.0000    0     1.008    2.329598   -0.455934   -2.426389
  17 O     8.0000    0    15.999    3.154841    0.737125   -1.185992
  18 H     1.0000    0     1.008    4.951593    0.826472   -1.529469

--------------------------------
INTERNAL COORDINATES (ANGSTROEM)
--------------------------------
 Zn     0   0   0     0.000000000000     0.00000000     0.00000000
 H      1   0   0     1.822551643548     0.00000000     0.00000000
 O      2   1   0     0.969480386754    75.40121028     0.00000000
 H      3   2   1     0.972484993149   104.27867625   210.57904023
 H      1   2   3     1.817034770251   121.23451263   204.47481242
 O      5   1   2     0.973606132119    82.45879631   208.03574087
 H      6   5   1     0.967501143669   104.46999362   238.77501334
 H      1   2   3     2.681724912011   100.40448792   327.06337547
 O      8   1   2     1.016297624764    31.79541609   120.91272186
 H      9   8   1     0.968129281501   106.90704265    90.67589284
 H      5   1   2     2.459767856079    74.39468436   321.21552324
 O     11   5   1     0.972988926196    54.55070557   302.22052588
 H     12  11   5     0.972496626729   105.82838797   283.60685674
 H      1   2   3     2.504837792054    76.16298043    85.02831354
 O     14   1   2     0.973880261891    49.65824216   253.81664292
 H     15  14   1     0.977681824777   106.00288135   244.73544860
 H      2   1   3     2.514993724426    76.20116113    99.37008562
 O     17   2   1     1.010022236240    75.09987318   356.29140224
 H     18  17   2     0.969171159290   109.43793937   162.82981716

---------------------------
INTERNAL COORDINATES (A.U.)
---------------------------
 Zn     0   0   0     0.000000000000     0.00000000     0.00000000
 H      1   0   0     3.444123471234     0.00000000     0.00000000
 O      2   1   0     1.832052423172    75.40121028     0.00000000
 H      3   2   1     1.837730306400   104.27867625   210.57904023
 H      1   2   3     3.433698091586   121.23451263   204.47481242
 O      5   1   2     1.839848952012    82.45879631   208.03574087
 H      6   5   1     1.828312195789   104.46999362   238.77501334
 H      1   2   3     5.067725650215   100.40448792   327.06337547
 O      8   1   2     1.920524181358    31.79541609   120.91272186
 H      9   8   1     1.829499204267   106.90704265    90.67589284
 H      5   1   2     4.648287601012    74.39468436   321.21552324
 O     11   5   1     1.838682601849    54.55070557   302.22052588
 H     12  11   5     1.837752290681   105.82838797   283.60685674
 H      1   2   3     4.733457436877    76.16298043    85.02831354
 O     14   1   2     1.840366982205    49.65824216   253.81664292
 H     15  14   1     1.847550894942   106.00288135   244.73544860
 H      2   1   3     4.752649367695    76.20116113    99.37008562
 O     17   2   1     1.908665415665    75.09987318   356.29140224
 H     18  17   2     1.831468067954   109.43793937   162.82981716

---------------------
BASIS SET INFORMATION
---------------------
There are 3 groups of distinct atoms

 Group   1 Type Zn  : 14s9p5d1f contracted to 5s3p2d1f pattern {63311/531/41/1}
 Group   2 Type H   : 4s1p contracted to 2s1p pattern {31/1}
 Group   3 Type O   : 7s4p1d contracted to 3s2p1d pattern {511/31/1}

Atom   0Zn   basis set group =>   1
Atom   1H    basis set group =>   2
Atom   2O    basis set group =>   3
Atom   3H    basis set group =>   2
Atom   4H    basis set group =>   2
Atom   5O    basis set group =>   3
Atom   6H    basis set group =>   2
Atom   7H    basis set group =>   2
Atom   8O    basis set group =>   3
Atom   9H    basis set group =>   2
Atom  10H    basis set group =>   2
Atom  11O    basis set group =>   3
Atom  12H    basis set group =>   2
Atom  13H    basis set group =>   2
Atom  14O    basis set group =>   3
Atom  15H    basis set group =>   2
Atom  16H    basis set group =>   2
Atom  17O    basis set group =>   3
Atom  18H    basis set group =>   2
---------------------------------
AUXILIARY/J BASIS SET INFORMATION
---------------------------------
There are 3 groups of distinct atoms

 Group   1 Type Zn  : 19s5p5d3f3g contracted to 8s5p5d2f3g pattern {121111111/11111/11111/21/111}
 Group   2 Type H   : 5s2p1d contracted to 3s1p1d pattern {311/2/1}
 Group   3 Type O   : 12s5p4d2f1g contracted to 6s4p3d1f1g pattern {711111/2111/211/2/1}

Atom   0Zn   basis set group =>   1
Atom   1H    basis set group =>   2
Atom   2O    basis set group =>   3
Atom   3H    basis set group =>   2
Atom   4H    basis set group =>   2
Atom   5O    basis set group =>   3
Atom   6H    basis set group =>   2
Atom   7H    basis set group =>   2
Atom   8O    basis set group =>   3
Atom   9H    basis set group =>   2
Atom  10H    basis set group =>   2
Atom  11O    basis set group =>   3
Atom  12H    basis set group =>   2
Atom  13H    basis set group =>   2
Atom  14O    basis set group =>   3
Atom  15H    basis set group =>   2
Atom  16H    basis set group =>   2
Atom  17O    basis set group =>   3
Atom  18H    basis set group =>   2


           ************************************************************
           *        Program running with 30 parallel MPI-processes    *
           *              working on a common directory               *
           ************************************************************
------------------------------------------------------------------------------
                             ORCA STARTUP CALCULATIONS
                           -- RI-GTO INTEGRALS CHOSEN --
------------------------------------------------------------------------------
------------------------------------------------------------------------------
                   ___                                                        
                  /   \      - P O W E R E D   B Y -                         
                 /     \                                                     
                 |  |  |   _    _      __       _____    __    __             
                 |  |  |  | |  | |    /  \     |  _  \  |  |  /  |          
                  \  \/   | |  | |   /    \    | | | |  |  | /  /          
                 / \  \   | |__| |  /  /\  \   | |_| |  |  |/  /          
                |  |  |   |  __  | /  /__\  \  |    /   |      \           
                |  |  |   | |  | | |   __   |  |    \   |  |\   \          
                \     /   | |  | | |  |  |  |  | |\  \  |  | \   \       
                 \___/    |_|  |_| |__|  |__|  |_| \__\ |__|  \__/        
                                                                              
                      - O R C A' S   B I G   F R I E N D -                    
                                      &                                       
                       - I N T E G R A L  F E E D E R -                       
                                                                              
 v1 FN, 2020, v2 2021, v3 2022-2024                                           
------------------------------------------------------------------------------


----------------------
SHARK INTEGRAL PACKAGE
----------------------

Number of atoms                             ...     19
Number of basis functions                   ...    175
Number of shells                            ...     83
Maximum angular momentum                    ...      3
Integral batch strategy                     ... SHARK/LIBINT Hybrid
RI-J (if used) integral strategy            ... SPLIT-RIJ (Revised 2003 algorithm where possible)
Printlevel                                  ...      1
Contraction scheme used                     ... SEGMENTED contraction
Prescreening option                         ... SCHWARTZ
   Thresh                                   ... 2.500e-11
   Tcut                                     ... 2.500e-12
   Tpresel                                  ... 2.500e-12 
Coulomb Range Separation                    ... NOT USED
Exchange Range Separation                   ... NOT USED
Multipole approximations                    ... NOT USED
Finite Nucleus Model                        ... NOT USED
CABS basis                                  ... NOT available
Auxiliary Coulomb fitting basis             ... AVAILABLE
   # of basis functions in Aux-J            ...    515
   # of shells in Aux-J                     ...    173
   Maximum angular momentum in Aux-J        ...      4
Auxiliary J/K fitting basis                 ... NOT available
Auxiliary Correlation fitting basis         ... NOT available
Auxiliary 'external' fitting basis          ... NOT available

Checking pre-screening integrals            ... done (  0.0 sec) Dimension = 83
Check shell pair data                       ... done (  0.0 sec)
Shell pair information
Shell pair cut-off parameter TPreSel        ...   2.5e-12
Total number of shell pairs                 ...      3486
Shell pairs after pre-screening             ...      3340
Total number of primitive shell pairs       ...     13195
Primitive shell pairs kept                  ...      9112
          la=0 lb=0:   1082 shell pairs
          la=1 lb=0:   1211 shell pairs
          la=1 lb=1:    361 shell pairs
          la=2 lb=0:    360 shell pairs
          la=2 lb=1:    207 shell pairs
          la=2 lb=2:     36 shell pairs
          la=3 lb=0:     47 shell pairs
          la=3 lb=1:     27 shell pairs
          la=3 lb=2:      8 shell pairs
          la=3 lb=3:      1 shell pairs

Calculating one electron integrals          ... done (  0.0 sec)
Calculating RI/J V-Matrix + Cholesky decomp.... done (  0.0 sec)
Calculating Nuclear repulsion               ... done (  0.0 sec) ENN=    788.974737253403 Eh

Diagonalization of the overlap matrix:
Smallest eigenvalue                        ... 1.166e-02
Time for diagonalization                   ...    0.003 sec
Threshold for overlap eigenvalues          ... 1.000e-07
Number of eigenvalues below threshold      ... 0
Time for construction of square roots      ...    0.001 sec
Total time needed                          ...    0.005 sec

-------------------
DFT GRID GENERATION
-------------------

General Integration Accuracy     IntAcc      ... 4.388
Radial Grid Type                 RadialGrid  ... OptM3 with GC (2021)
Angular Grid (max. ang.)         AngularGrid ... 4 (Lebedev-302)
Angular grid pruning method      GridPruning ... 4 (adaptive)
Weight generation scheme         WeightScheme... mBecke (2022)
Basis function cutoff            BFCut       ... 1.0000e-11
Integration weight cutoff        WCut        ... 1.0000e-14
Partially contracted basis set               ... off
Rotationally invariant grid construction     ... off
Angular grids for H and He will be reduced by one unit
Core-polarized basis detected: some atoms will have their core
                               angular grid increased.

Total number of grid points                  ...    86032
Total number of batches                      ...     1353
Average number of points per batch           ...       63
Average number of grid points per atom       ...     4528

--------------------
COSX GRID GENERATION
--------------------

GRIDX 1
-------
General Integration Accuracy     IntAcc      ... 3.816
Radial Grid Type                 RadialGrid  ... OptM3 with GC (2021)
Angular Grid (max. ang.)         AngularGrid ... 1 (Lebedev-50)
Angular grid pruning method      GridPruning ... 4 (adaptive)
Weight generation scheme         WeightScheme... mBecke (2022)
Basis function cutoff            BFCut       ... 1.0000e-11
Integration weight cutoff        WCut        ... 1.0000e-14
Partially contracted basis set               ... on
Rotationally invariant grid construction     ... off
Angular grids for H and He will be reduced by one unit
Core-polarized basis detected: some atoms will have their core
                               angular grid increased.

Total number of grid points                  ...    15348
Total number of batches                      ...      128
Average number of points per batch           ...      119
Average number of grid points per atom       ...      808
UseSFitting                                  ... on

GRIDX 2
-------
General Integration Accuracy     IntAcc      ... 4.020
Radial Grid Type                 RadialGrid  ... OptM3 with GC (2021)
Angular Grid (max. ang.)         AngularGrid ... 2 (Lebedev-110)
Angular grid pruning method      GridPruning ... 4 (adaptive)
Weight generation scheme         WeightScheme... mBecke (2022)
Basis function cutoff            BFCut       ... 1.0000e-11
Integration weight cutoff        WCut        ... 1.0000e-14
Partially contracted basis set               ... on
Rotationally invariant grid construction     ... off
Angular grids for H and He will be reduced by one unit
Core-polarized basis detected: some atoms will have their core
                               angular grid increased.

Total number of grid points                  ...    25752
Total number of batches                      ...      211
Average number of points per batch           ...      122
Average number of grid points per atom       ...     1355
UseSFitting                                  ... on

GRIDX 3
-------
General Integration Accuracy     IntAcc      ... 4.338
Radial Grid Type                 RadialGrid  ... OptM3 with GC (2021)
Angular Grid (max. ang.)         AngularGrid ... 3 (Lebedev-194)
Angular grid pruning method      GridPruning ... 4 (adaptive)
Weight generation scheme         WeightScheme... mBecke (2022)
Basis function cutoff            BFCut       ... 1.0000e-11
Integration weight cutoff        WCut        ... 1.0000e-14
Partially contracted basis set               ... on
Rotationally invariant grid construction     ... off
Angular grids for H and He will be reduced by one unit
Core-polarized basis detected: some atoms will have their core
                               angular grid increased.

Total number of grid points                  ...    49485
Total number of batches                      ...      398
Average number of points per batch           ...      124
Average number of grid points per atom       ...     2604
UseSFitting                                  ... on
Initializing property integral containers    ... done (  0.0 sec)

SHARK setup successfully completed in   0.9 seconds

Maximum memory used throughout the entire STARTUP-calculation: 24.4 MB


           ************************************************************
           *        Program running with 30 parallel MPI-processes    *
           *              working on a common directory               *
           ************************************************************
-------------------------------------------------------------------------------
                                 ORCA GUESS
                   Start orbitals & Density for SCF / CASSCF
-------------------------------------------------------------------------------

------------
SCF SETTINGS
------------
Hamiltonian:
 Density Functional     Method          .... DFT(GTOs)
 Exchange Functional    Exchange        .... B88
   X-Alpha parameter    XAlpha          ....  0.666667
   Becke's b parameter  XBeta           ....  0.004200
 Correlation Functional Correlation     .... LYP
 LDA part of GGA corr.  LDAOpt          .... VWN-5
 Gradients option       PostSCFGGA      .... off
 Hybrid DFT is turned on
   Fraction HF Exchange ScalHFX         ....  0.200000
   Scaling of DF-GGA-X  ScalDFX         ....  0.720000
   Scaling of DF-GGA-C  ScalDFC         ....  0.810000
   Scaling of DF-LDA-C  ScalLDAC        ....  1.000000
   Perturbative correction              ....  0.000000
   NL short-range parameter             ....  4.800000
 RI-approximation to the Coulomb term is turned on
   Number of AuxJ basis functions       .... 515
   RIJ-COSX (HFX calculated with COS-X)).... on


General Settings:
 Integral files         IntName         .... zinc_hydrate_1
 Hartree-Fock type      HFTyp           .... RHF
 Total Charge           Charge          ....    2
 Multiplicity           Mult            ....    1
 Number of Electrons    NEL             ....   88
 Basis Dimension        Dim             ....  175
 Nuclear Repulsion      ENuc            ....    788.9747372534 Eh

Convergence Acceleration:
 AO-DIIS                CNVDIIS         .... on
   Start iteration      DIISMaxIt       ....    12
   Startup error        DIISStart       ....  0.200000
   # of expansion vecs  DIISMaxEq       ....     5
   Bias factor          DIISBfac        ....   1.050
   Max. coefficient     DIISMaxC        ....  10.000
 MO-DIIS                CNVKDIIS        .... off
 Trust-Rad. Augm. Hess. CNVTRAH         .... auto
   Auto Start mean grad. ratio tolernc. ....  1.125000
   Auto Start start iteration           ....    50
   Auto Start num. interpolation iter.  ....    10
   Max. Number of Micro iterations      ....    24
   Max. Number of Macro iterations      .... Maxiter - #DIIS iter
   Number of Davidson start vectors     ....     2
   Converg. threshold    (grad. norm)   ....   1.000e-05
   Grad. Scal. Fac. for Micro threshold ....   0.100
   Minimum threshold for Micro iter.    ....   1.000e-02
   NR start threshold (gradient norm)   ....   1.000e-04
   Initial trust radius                 ....   0.400
   Minimum AH scaling param. (alpha)    ....   1.000
   Maximum AH scaling param. (alpha)    .... 1000.000
   Quad. conv. algorithm                .... NR
   White noise on init. David. guess    .... on
   Maximum white noise                  ....   0.010
   Pseudo random numbers                .... off
   Inactive MOs                         .... canonical
   Orbital update algorithm             .... Taylor
   Preconditioner                       .... Diag
   Full preconditioner red. dimension   ....   250
 SOSCF                  CNVSOSCF        .... on
   Start iteration      SOSCFMaxIt      ....   150
   Startup grad/error   SOSCFStart      ....  0.003300
   Hessian update       SOSCFHessUp     .... L-BFGS
 Level Shifting         CNVShift        .... on
   Level shift para.    LevelShift      ....    0.2500
   Turn off err/grad.   ShiftErr        ....    0.0010
 Zerner damping         CNVZerner       .... off
 Static damping         CNVDamp         .... on
   Fraction old density DampFac         ....    0.7000
   Max. Damping (<1)    DampMax         ....    0.9800
   Min. Damping (>=0)   DampMin         ....    0.0000
   Turn off err/grad.   DampErr         ....    0.1000

SCF Procedure:
 Maximum # iterations   MaxIter         ....   125
 SCF integral mode      SCFMode         .... Direct
   Integral package                     .... SHARK and LIBINT hybrid scheme
 Reset frequency        DirectResetFreq ....    20
 Integral Threshold     Thresh          ....  2.500e-11 Eh
 Primitive CutOff       TCut            ....  2.500e-12 Eh

Convergence Tolerance:
 Convergence Check Mode ConvCheckMode   .... Total+1el-Energy
 Convergence forced     ConvForced      .... 0
 Energy Change          TolE            ....  1.000e-08 Eh
 1-El. energy change                    ....  1.000e-05 Eh
 Orbital Gradient       TolG            ....  1.000e-05
 Orbital Rotation angle TolX            ....  1.000e-05
 DIIS Error             TolErr          ....  5.000e-07

------------------------------
INITIAL GUESS: MODEL POTENTIAL
------------------------------
Loading Hartree-Fock densities                     ... done
Calculating cut-offs                               ... done
Initializing the effective Hamiltonian             ... done
Setting up the integral package (SHARK)            ... done
Starting the Coulomb interaction                   ... done (   0.1 sec)
Making the grid                                    ... done (   0.1 sec)
Mapping shells                                     ... done
Starting the XC term evaluation                    ... done (   0.0 sec)
  promolecular density results
     # of electrons  =     89.993572965
     EX              =   -122.894212967
     EC              =     -3.555102092
     EX+EC           =   -126.449315059
Transforming the Hamiltonian                       ... done (   0.0 sec)
Diagonalizing the Hamiltonian                      ... done (   0.0 sec)
Back transforming the eigenvectors                 ... done (   0.0 sec)
Now organizing SCF variables                       ... done
                      ------------------
                      INITIAL GUESS DONE (   0.2 sec)
                      ------------------
             **** ENERGY FILE WAS UPDATED (zinc_hydrate_1.en.tmp) ****
Finished Guess after   1.2 sec
Maximum memory used throughout the entire GUESS-calculation: 14.0 MB


           ************************************************************
           *        Program running with 30 parallel MPI-processes    *
           *              working on a common directory               *
           ************************************************************

-------------------------------------------------------------------------------------------
                                      ORCA LEAN-SCF
                              memory conserving SCF solver
-------------------------------------------------------------------------------------------

--------------------
CPCM SOLVATION MODEL
--------------------
CPCM parameters:
  Epsilon                                         ...      80.1510
  Refrac                                          ...       1.3328
  Rsolv                                           ...       1.3000
  Surface type                                    ... GAUSSIAN VDW
  Discretization scheme                           ... Constant charge density
    Threshold for H atoms                         ...       5.0000 (charges/Ang^2)
    Threshold for non-H atoms                     ...       5.0000 (charges/Ang^2)
  Epsilon function type                           ...         CPCM
Solvent:                                          ... WATER
Radii:
  Scheme                                          ... Element-dependent radii
  Radius for Zn used is    3.1521 Bohr (=   1.6680 Ang.)
  Radius for H  used is    2.4944 Bohr (=   1.3200 Ang.)
  Radius for O  used is    3.4469 Bohr (=   1.8240 Ang.)
Calculating surface                               ...        done! (  0.0s)
Cavity surface points                             ...         1390
Cavity Volume                                     ...     966.0514
Cavity Surface-area                               ...     589.2287
Calculating surface distance matrix               ...        done! (  0.0s)
Performing Cholesky decomposition & store         ...        done! (  0.0s)
Overall time for CPCM initialization              ...                 0.1s

----------------------------------------D-I-I-S--------------------------------------------
Iteration    Energy (Eh)           Delta-E    RMSDP     MaxDP     DIISErr   Damp  Time(sec)
-------------------------------------------------------------------------------------------
               ***  Starting incremental Fock matrix formation  ***
    1    -2236.3169109119571658     0.00e+00  4.18e-03  1.03e-01  2.72e-01  0.700   0.5
    2    -2236.5351387478649485    -2.18e-01  2.30e-03  5.86e-02  1.14e-01  0.700   0.3
                               ***Turning on AO-DIIS***
    3    -2236.6068386091023967    -7.17e-02  5.63e-04  1.18e-02  2.85e-02  0.700   0.3
    4    -2236.6525394115224117    -4.57e-02  7.16e-04  1.37e-02  9.59e-03  0.000   0.3
    5    -2236.7581372743329666    -1.06e-01  2.62e-04  1.21e-02  6.23e-03  0.000   0.3
                              *** Initializing SOSCF ***
---------------------------------------S-O-S-C-F--------------------------------------
Iteration    Energy (Eh)           Delta-E    RMSDP     MaxDP     MaxGrad    Time(sec)
--------------------------------------------------------------------------------------
    6    -2236.7584649293485199    -3.28e-04  7.93e-05  2.75e-03  1.46e-03     0.3
               *** Restarting incremental Fock matrix formation ***
    7    -2236.7584196448256080     4.53e-05  5.63e-05  2.25e-03  2.35e-04     0.3
    8    -2236.7584192289104976     4.16e-07  2.25e-05  6.29e-04  3.57e-04     0.3
    9    -2236.7584236888228588    -4.46e-06  3.30e-06  6.88e-05  1.09e-05     0.3
   10    -2236.7584237032474448    -1.44e-08  1.08e-06  3.41e-05  9.03e-06     0.3
   11    -2236.7584237031464909     1.01e-10  8.05e-07  2.10e-05  4.22e-06     0.2
                 **** Energy Check signals convergence ****

               *****************************************************
               *                     SUCCESS                       *
               *           SCF CONVERGED AFTER  11 CYCLES          *
               *****************************************************

Recomputing exchange energy using gridx3       ... done (    0.297 sec)
Old exchange energy                            :    -24.593143371 Eh
New exchange energy                            :    -24.593146555 Eh
Exchange energy change after final integration :     -0.000003184 Eh
Total energy after final integration           :  -2236.758426887 Eh
             **** ENERGY FILE WAS UPDATED (zinc_hydrate_1.en.tmp) ****

----------------
TOTAL SCF ENERGY
----------------

Total Energy       :      -2236.75842688741795 Eh          -60865.29113 eV

Components:
Nuclear Repulsion  :        788.97473725340342 Eh           21469.09407 eV
Electronic Energy  :      -3025.38041231286024 Eh          -82324.78633 eV
One Electron Energy:      -4653.51679405492359 Eh         -126628.62964 eV
Two Electron Energy:       1628.13638174206358 Eh           44303.84331 eV
CPCM Dielectric    :         -0.35274864368969 Eh              -9.59878 eV

Virial components:
Potential Energy   :      -4468.03253578949170 Eh         -121581.34638 eV
Kinetic Energy     :       2231.27410890207375 Eh           60716.05525 eV
Virial Ratio       :          2.00245793108227

DFT components:
N(Alpha)           :       44.000043750410 electrons
N(Beta)            :       44.000043750410 electrons
N(Total)           :       88.000087500820 electrons
E(X)               :      -97.978190323461 Eh       
E(C)               :       -4.100245462115 Eh       
E(XC)              :     -102.078435785575 Eh       

CPCM Solvation Model Properties:
Surface-charge          :         -2.00462489563882
Corrected charge        :         -2.00000000000000
Outlying charge corr.   :          0.00000163901097 Eh               0.00004 eV
Free-energy (cav+disp)  :  This term is not implemented in the current solvation scheme

---------------
SCF CONVERGENCE
---------------

  Last Energy change         ...   -1.0095e-10  Tolerance :   1.0000e-08
  Last MAX-Density change    ...    2.1004e-05  Tolerance :   1.0000e-07
  Last RMS-Density change    ...    8.0477e-07  Tolerance :   5.0000e-09
  Last DIIS Error            ...    1.4614e-03  Tolerance :   5.0000e-07
  Last Orbital Gradient      ...    4.2176e-06  Tolerance :   1.0000e-05
  Last Orbital Rotation      ...    8.1905e-06  Tolerance :   1.0000e-05


----------------
ORBITAL ENERGIES
----------------

  NO   OCC          E(Eh)            E(eV) 
   0   2.0000    -347.264652     -9449.5516 
   1   2.0000     -42.221659     -1148.9097 
   2   2.0000     -37.217379     -1012.7364 
   3   2.0000     -37.214186     -1012.6495 
   4   2.0000     -37.212398     -1012.6008 
   5   2.0000     -19.209707      -522.7227 
   6   2.0000     -19.197382      -522.3873 
   7   2.0000     -19.189375      -522.1694 
   8   2.0000     -19.177467      -521.8454 
   9   2.0000     -19.169883      -521.6390 
  10   2.0000     -19.169153      -521.6192 
  11   2.0000      -4.831220      -131.4642 
  12   2.0000      -3.229413       -87.8768 
  13   2.0000      -3.224279       -87.7371 
  14   2.0000      -3.222083       -87.6773 
  15   2.0000      -1.091285       -29.6954 
  16   2.0000      -1.063800       -28.9475 
  17   2.0000      -1.047011       -28.4906 
  18   2.0000      -1.041932       -28.3524 
  19   2.0000      -1.038244       -28.2520 
  20   2.0000      -1.026993       -27.9459 
  21   2.0000      -0.632912       -17.2224 
  22   2.0000      -0.615197       -16.7404 
  23   2.0000      -0.594249       -16.1703 
  24   2.0000      -0.585416       -15.9300 
  25   2.0000      -0.572455       -15.5773 
  26   2.0000      -0.565427       -15.3860 
  27   2.0000      -0.547280       -14.8922 
  28   2.0000      -0.541369       -14.7314 
  29   2.0000      -0.533022       -14.5043 
  30   2.0000      -0.515837       -14.0366 
  31   2.0000      -0.507426       -13.8078 
  32   2.0000      -0.485617       -13.2143 
  33   2.0000      -0.472948       -12.8696 
  34   2.0000      -0.451038       -12.2734 
  35   2.0000      -0.441660       -12.0182 
  36   2.0000      -0.411002       -11.1839 
  37   2.0000      -0.403837       -10.9890 
  38   2.0000      -0.389543       -10.6000 
  39   2.0000      -0.377334       -10.2678 
  40   2.0000      -0.359400        -9.7798 
  41   2.0000      -0.350919        -9.5490 
  42   2.0000      -0.333285        -9.0691 
  43   2.0000      -0.322581        -8.7779 
  44   0.0000      -0.024612        -0.6697 
  45   0.0000       0.032630         0.8879 
  46   0.0000       0.042712         1.1622 
  47   0.0000       0.057813         1.5732 
  48   0.0000       0.079251         2.1565 
  49   0.0000       0.085735         2.3330 
  50   0.0000       0.107907         2.9363 
  51   0.0000       0.122460         3.3323 
  52   0.0000       0.126948         3.4544 
  53   0.0000       0.132809         3.6139 
  54   0.0000       0.138604         3.7716 
*Only the first 10 virtual orbitals were printed.

                    ********************************
                    * MULLIKEN POPULATION ANALYSIS *
                    ********************************

-----------------------
MULLIKEN ATOMIC CHARGES
-----------------------
   0 Zn:    0.602254
   1 H :    0.206207
   2 O :   -0.168909
   3 H :    0.225542
   4 H :    0.190659
   5 O :   -0.206615
   6 H :    0.242997
   7 H :    0.265765
   8 O :   -0.220936
   9 H :    0.205136
  10 H :    0.243483
  11 O :   -0.269467
  12 H :    0.241746
  13 H :    0.216904
  14 O :   -0.239177
  15 H :    0.228738
  16 H :    0.278440
  17 O :   -0.286564
  18 H :    0.243794
Sum of atomic charges:    2.0000000

--------------------------------
MULLIKEN REDUCED ORBITAL CHARGES
--------------------------------
  0 Zns       :     6.599420  s :     6.599420
      pz      :     4.267885  p :    12.794623
      px      :     4.287729
      py      :     4.239008
      dz2     :     1.996134  d :    10.003406
      dxz     :     2.005050
      dyz     :     2.004786
      dx2y2   :     2.006874
      dxy     :     1.990561
      f0      :     0.000041  f :     0.000299
      f+1     :     0.000039
      f-1     :     0.000025
      f+2     :     0.000076
      f-2     :     0.000031
      f+3     :     0.000044
      f-3     :     0.000042

  1 H s       :     0.717564  s :     0.717564
      pz      :     0.021209  p :     0.076228
      px      :     0.018041
      py      :     0.036978

  2 O s       :     3.634667  s :     3.634667
      pz      :     1.883842  p :     4.524060
      px      :     1.265287
      py      :     1.374930
      dz2     :     0.001585  d :     0.010182
      dxz     :     0.000928
      dyz     :     0.001577
      dx2y2   :     0.005067
      dxy     :     0.001024

  3 H s       :     0.705292  s :     0.705292
      pz      :     0.015909  p :     0.069166
      px      :     0.039152
      py      :     0.014105

  4 H s       :     0.733317  s :     0.733317
      pz      :     0.027798  p :     0.076024
      px      :     0.017489
      py      :     0.030737

  5 O s       :     3.665243  s :     3.665243
      pz      :     1.581977  p :     4.530559
      px      :     1.482099
      py      :     1.466484
      dz2     :     0.001872  d :     0.010813
      dxz     :     0.002564
      dyz     :     0.004189
      dx2y2   :     0.000907
      dxy     :     0.001280

  6 H s       :     0.688627  s :     0.688627
      pz      :     0.015661  p :     0.068376
      px      :     0.029447
      py      :     0.023268

  7 H s       :     0.671868  s :     0.671868
      pz      :     0.035700  p :     0.062366
      px      :     0.011761
      py      :     0.014905

  8 O s       :     3.654260  s :     3.654260
      pz      :     1.360172  p :     4.557363
      px      :     1.418499
      py      :     1.778692
      dz2     :     0.002817  d :     0.009313
      dxz     :     0.001385
      dyz     :     0.000672
      dx2y2   :     0.003267
      dxy     :     0.001172

  9 H s       :     0.721653  s :     0.721653
      pz      :     0.019349  p :     0.073211
      px      :     0.034910
      py      :     0.018951

 10 H s       :     0.689682  s :     0.689682
      pz      :     0.019320  p :     0.066836
      px      :     0.015086
      py      :     0.032430

 11 O s       :     3.651272  s :     3.651272
      pz      :     1.622351  p :     4.610075
      px      :     1.573624
      py      :     1.414100
      dz2     :     0.000567  d :     0.008119
      dxz     :     0.001679
      dyz     :     0.001515
      dx2y2   :     0.003803
      dxy     :     0.000555

 12 H s       :     0.690375  s :     0.690375
      pz      :     0.022199  p :     0.067879
      px      :     0.032205
      py      :     0.013475

 13 H s       :     0.715574  s :     0.715574
      pz      :     0.022703  p :     0.067522
      px      :     0.017042
      py      :     0.027777

 14 O s       :     3.658744  s :     3.658744
      pz      :     1.490732  p :     4.570940
      px      :     1.722289
      py      :     1.357919
      dz2     :     0.001347  d :     0.009493
      dxz     :     0.001904
      dyz     :     0.004780
      dx2y2   :     0.000505
      dxy     :     0.000958

 15 H s       :     0.704257  s :     0.704257
      pz      :     0.018806  p :     0.067004
      px      :     0.020644
      py      :     0.027554

 16 H s       :     0.659492  s :     0.659492
      pz      :     0.021493  p :     0.062067
      px      :     0.017859
      py      :     0.022715

 17 O s       :     3.646597  s :     3.646597
      pz      :     1.586506  p :     4.633325
      px      :     1.315411
      py      :     1.731408
      dz2     :     0.001044  d :     0.006642
      dxz     :     0.000970
      dyz     :     0.001710
      dx2y2   :     0.002461
      dxy     :     0.000458

 18 H s       :     0.689231  s :     0.689231
      pz      :     0.014111  p :     0.066975
      px      :     0.037419
      py      :     0.015445



                     *******************************
                     * LOEWDIN POPULATION ANALYSIS *
                     *******************************

----------------------
LOEWDIN ATOMIC CHARGES
----------------------
   0 Zn:    0.665179
   1 H :    0.096992
   2 O :   -0.015318
   3 H :    0.134350
   4 H :    0.083461
   5 O :   -0.005310
   6 H :    0.136991
   7 H :    0.163420
   8 O :   -0.043971
   9 H :    0.091900
  10 H :    0.134266
  11 O :   -0.027847
  12 H :    0.123193
  13 H :    0.112570
  14 O :   -0.034249
  15 H :    0.121292
  16 H :    0.169424
  17 O :   -0.035536
  18 H :    0.129195

-------------------------------
LOEWDIN REDUCED ORBITAL CHARGES
-------------------------------
  0 Zns       :     6.413733  s :     6.413733
      pz      :     4.298428  p :    12.840027
      px      :     4.280534
      py      :     4.261064
      dz2     :     2.006060  d :    10.080631
      dxz     :     2.025623
      dyz     :     2.023400
      dx2y2   :     2.029379
      dxy     :     1.996169
      f0      :     0.000056  f :     0.000430
      f+1     :     0.000057
      f-1     :     0.000035
      f+2     :     0.000117
      f-2     :     0.000043
      f+3     :     0.000065
      f-3     :     0.000058

  1 H s       :     0.711459  s :     0.711459
      pz      :     0.058215  p :     0.191549
      px      :     0.039445
      py      :     0.093889

  2 O s       :     3.372648  s :     3.372648
      pz      :     1.830243  p :     4.622444
      px      :     1.353867
      py      :     1.438334
      dz2     :     0.003399  d :     0.020225
      dxz     :     0.001528
      dyz     :     0.001943
      dx2y2   :     0.011713
      dxy     :     0.001643

  3 H s       :     0.692216  s :     0.692216
      pz      :     0.047132  p :     0.173434
      px      :     0.095335
      py      :     0.030967

  4 H s       :     0.718660  s :     0.718660
      pz      :     0.078423  p :     0.197878
      px      :     0.046583
      py      :     0.072873

  5 O s       :     3.393123  s :     3.393123
      pz      :     1.614681  p :     4.591625
      px      :     1.501294
      py      :     1.475651
      dz2     :     0.002427  d :     0.020562
      dxz     :     0.003399
      dyz     :     0.008066
      dx2y2   :     0.002462
      dxy     :     0.004208

  6 H s       :     0.689146  s :     0.689146
      pz      :     0.043287  p :     0.173863
      px      :     0.078085
      py      :     0.052491

  7 H s       :     0.683489  s :     0.683489
      pz      :     0.085384  p :     0.153091
      px      :     0.025554
      py      :     0.042154

  8 O s       :     3.398672  s :     3.398672
      pz      :     1.391471  p :     4.627471
      px      :     1.484998
      py      :     1.751002
      dz2     :     0.006156  d :     0.017828
      dxz     :     0.002776
      dyz     :     0.001602
      dx2y2   :     0.006491
      dxy     :     0.000803

  9 H s       :     0.718717  s :     0.718717
      pz      :     0.040027  p :     0.189383
      px      :     0.093798
      py      :     0.055558

 10 H s       :     0.692628  s :     0.692628
      pz      :     0.048003  p :     0.173106
      px      :     0.036749
      py      :     0.088353

 11 O s       :     3.380936  s :     3.380936
      pz      :     1.602357  p :     4.630415
      px      :     1.577625
      py      :     1.450434
      dz2     :     0.000916  d :     0.016495
      dxz     :     0.003910
      dyz     :     0.003515
      dx2y2   :     0.007670
      dxy     :     0.000485

 12 H s       :     0.700875  s :     0.700875
      pz      :     0.060039  p :     0.175933
      px      :     0.084806
      py      :     0.031087

 13 H s       :     0.713633  s :     0.713633
      pz      :     0.066602  p :     0.173797
      px      :     0.046231
      py      :     0.060964

 14 O s       :     3.404576  s :     3.404576
      pz      :     1.534472  p :     4.611238
      px      :     1.692251
      py      :     1.384515
      dz2     :     0.001257  d :     0.018434
      dxz     :     0.003007
      dyz     :     0.009967
      dx2y2   :     0.001391
      dxy     :     0.002811

 15 H s       :     0.706892  s :     0.706892
      pz      :     0.054044  p :     0.171816
      px      :     0.055499
      py      :     0.062273

 16 H s       :     0.674761  s :     0.674761
      pz      :     0.060302  p :     0.155815
      px      :     0.034055
      py      :     0.061458

 17 O s       :     3.377429  s :     3.377429
      pz      :     1.582200  p :     4.643650
      px      :     1.357891
      py      :     1.703559
      dz2     :     0.002298  d :     0.014457
      dxz     :     0.002410
      dyz     :     0.003333
      dx2y2   :     0.005464
      dxy     :     0.000953

 18 H s       :     0.694641  s :     0.694641
      pz      :     0.040144  p :     0.176164
      px      :     0.093955
      py      :     0.042064



                      *****************************
                      * MAYER POPULATION ANALYSIS *
                      *****************************

  NA   - Mulliken gross atomic population
  ZA   - Total nuclear charge
  QA   - Mulliken gross atomic charge
  VA   - Mayer's total valence
  BVA  - Mayer's bonded valence
  FA   - Mayer's free valence

  ATOM       NA         ZA         QA         VA         BVA        FA
  0 Zn    29.3977    30.0000     0.6023     2.4390     2.4390     0.0000
  1 H      0.7938     1.0000     0.2062     0.9912     0.9912     0.0000
  2 O      8.1689     8.0000    -0.1689     2.2424     2.2424     0.0000
  3 H      0.7745     1.0000     0.2255     0.9961     0.9961     0.0000
  4 H      0.8093     1.0000     0.1907     1.0529     1.0529     0.0000
  5 O      8.2066     8.0000    -0.2066     2.3065     2.3065    -0.0000
  6 H      0.7570     1.0000     0.2430     0.9798     0.9798     0.0000
  7 H      0.7342     1.0000     0.2658     0.9638     0.9638     0.0000
  8 O      8.2209     8.0000    -0.2209     2.2597     2.2597     0.0000
  9 H      0.7949     1.0000     0.2051     1.0031     1.0031     0.0000
 10 H      0.7565     1.0000     0.2435     0.9706     0.9706     0.0000
 11 O      8.2695     8.0000    -0.2695     2.2831     2.2831    -0.0000
 12 H      0.7583     1.0000     0.2417     0.9912     0.9912    -0.0000
 13 H      0.7831     1.0000     0.2169     0.9987     0.9987    -0.0000
 14 O      8.2392     8.0000    -0.2392     2.2634     2.2634     0.0000
 15 H      0.7713     1.0000     0.2287     0.9760     0.9760     0.0000
 16 H      0.7216     1.0000     0.2784     0.9521     0.9521     0.0000
 17 O      8.2866     8.0000    -0.2866     2.2773     2.2773     0.0000
 18 H      0.7562     1.0000     0.2438     0.9789     0.9789     0.0000

  Mayer bond orders larger than 0.100000
B(  0-Zn,  2-O ) :   0.3884 B(  0-Zn,  5-O ) :   0.3872 B(  0-Zn,  8-O ) :   0.4142 
B(  0-Zn, 11-O ) :   0.3389 B(  0-Zn, 14-O ) :   0.3723 B(  0-Zn, 17-O ) :   0.3634 
B(  1-H ,  2-O ) :   0.9309 B(  2-O ,  3-H ) :   0.9333 B(  4-H ,  5-O ) :   0.8996 
B(  5-O ,  6-H ) :   0.9369 B(  7-H ,  8-O ) :   0.9152 B(  8-O ,  9-H ) :   0.9339 
B( 10-H , 11-O ) :   0.9430 B( 11-O , 12-H ) :   0.9297 B( 13-H , 14-O ) :   0.9519 
B( 14-O , 15-H ) :   0.9470 B( 16-H , 17-O ) :   0.9129 B( 17-O , 18-H ) :   0.9374 


Environment variable NBOEXE for nbo6.exe or nbo5.exe not set! Skipping NBO-Analysis

-------
TIMINGS
-------

Total SCF time: 0 days 0 hours 0 min 4 sec 

Total time                  ....       4.723 sec
Sum of individual times     ....       4.661 sec  ( 98.7%)

SCF preparation             ....       1.057 sec  ( 22.4%)
Fock matrix formation       ....       3.377 sec  ( 71.5%)
  Startup                   ....       0.013 sec  (  0.4% of F)
  Split-RI-J                ....       0.382 sec  ( 11.3% of F)
  Chain of spheres X        ....       1.903 sec  ( 56.3% of F)
  XC integration            ....       0.562 sec  ( 16.6% of F)
    XC Preparation          ....       0.000 sec  (  0.0% of XC)
    Basis function eval.    ....       0.129 sec  ( 22.9% of XC)
    Density eval.           ....       0.053 sec  (  9.5% of XC)
    XC-Functional eval.     ....       0.030 sec  (  5.3% of XC)
    XC-Potential eval.      ....       0.072 sec  ( 12.8% of XC)
  CPCM terms                ....       0.477 sec  ( 14.1% of F)
Diagonalization             ....       0.000 sec  (  0.0%)
Density matrix formation    ....       0.025 sec  (  0.5%)
Total Energy calculation    ....       0.025 sec  (  0.5%)
Population analysis         ....       0.014 sec  (  0.3%)
Orbital Transformation      ....       0.019 sec  (  0.4%)
Orbital Orthonormalization  ....       0.000 sec  (  0.0%)
DIIS solution               ....       0.099 sec  (  2.1%)
SOSCF solution              ....       0.045 sec  (  0.9%)
Finished LeanSCF after   4.8 sec

Maximum memory used throughout the entire LEANSCF-calculation: 19.9 MB


-------------------------------------------------------------------------------
                          DFT DISPERSION CORRECTION                            
                                                                               
                              DFTD3 V3.1  Rev 1                                
                          USING Becke-Johnson damping                          
-------------------------------------------------------------------------------
The B3LYP functional is recognized
Active option DFTDOPT                   ...         4   

molecular C6(AA) [au] = 2700.713019 


            DFT-D V3
 parameters
 s6 scaling factor         :     1.0000 
 a1 scaling factor         :     0.3981 
 s8 scaling factor         :     1.9889 
 a2 scaling factor         :     4.4211 
 ad hoc parameters k1-k3   :    16.0000     1.3333    -4.0000 

 Edisp/kcal,au: -17.148502381262  -0.027327875133 
 E6   /kcal   :  -8.156620131 
 E8   /kcal   :  -8.991882250 
 % E8         :  52.435379197 

-------------------------   ----------------
Dispersion correction           -0.027327875
-------------------------   ----------------


-------------------------   --------------------
FINAL SINGLE POINT ENERGY     -2236.785754762551
-------------------------   --------------------



           ************************************************************
           *        Program running with 30 parallel MPI-processes    *
           *              working on a common directory               *
           ************************************************************
------------------------------------------------------------------------------
                         ORCA SCF GRADIENT CALCULATION
------------------------------------------------------------------------------

Nuc. rep. gradient        (SHARK) ... done (  0.0 sec)
HCore & Overlap gradient  (SHARK) ... done (  0.1 sec)
Split-RIJ-J gradient      (SHARK) ... done (  0.3 sec)
COSX-gradient                     ... done (  0.9 sec)
XC gradient                       ... done (  0.3 sec)
CPCM gradient                     ... done (  0.2 sec)
Dispersion correction             ... done (  0.1 sec)

-------------------
DISPERSION GRADIENT
-------------------

   1   Zn  :   -0.000016093    0.000069122    0.000035487
   2   H   :   -0.000308786   -0.000165153   -0.000122337
   3   O   :   -0.000535016   -0.000005945   -0.000213084
   4   H   :   -0.000382048   -0.000041681   -0.000113990
   5   H   :    0.000291532   -0.000116400    0.000069811
   6   O   :    0.000544724   -0.000032807    0.000274341
   7   H   :    0.000382160    0.000091102    0.000117877
   8   H   :    0.000013646    0.000352340   -0.000225311
   9   O   :   -0.000025067    0.000562828   -0.000240743
  10   H   :    0.000144392    0.000330337   -0.000081161
  11   H   :    0.000009652   -0.000395864    0.000167283
  12   O   :    0.000094496   -0.000466145    0.000375154
  13   H   :    0.000135835   -0.000240247    0.000225036
  14   H   :   -0.000232891    0.000076279    0.000308459
  15   O   :   -0.000405706    0.000244805    0.000350229
  16   H   :   -0.000157494    0.000246733    0.000316972
  17   H   :    0.000055593   -0.000208560   -0.000378779
  18   O   :    0.000163416   -0.000166555   -0.000536913
  19   H   :    0.000227656   -0.000134190   -0.000328334

Difference to translation invariance:
           :   -0.0000000000    0.0000000000   -0.0000000000

Difference to rotation invariance:
           :   -0.0000000000   -0.0000000000    0.0000000000

Norm of the Dispersion gradient    ...    0.0020113455
RMS gradient                       ...    0.0002664092
MAX gradient                       ...    0.0005628280

------------------
CARTESIAN GRADIENT
------------------

   1   Zn  :    0.000535641   -0.003446896   -0.038330740
   2   H   :    0.037410348    0.021158137    0.015804066
   3   O   :    0.068977829    0.042426889    0.060170340
   4   H   :   -0.003361011   -0.001552330   -0.005284539
   5   H   :   -0.037589943    0.015506847   -0.006738922
   6   O   :   -0.037057661   -0.016386247    0.001346588
   7   H   :   -0.009003404   -0.005558082   -0.000250769
   8   H   :   -0.001901511    0.015426186   -0.035887369
   9   O   :   -0.016826170   -0.065458640    0.038894451
  10   H   :   -0.012165548   -0.032799044    0.013104210
  11   H   :    0.001845756    0.002917301   -0.004146966
  12   O   :    0.019826403    0.033381203   -0.006627547
  13   H   :    0.003119587    0.000339286   -0.001692319
  14   H   :   -0.000244134   -0.004087542   -0.003570357
  15   O   :   -0.002477307   -0.021984716   -0.045912043
  16   H   :    0.007208650    0.003435119   -0.005103344
  17   H   :   -0.018332955   -0.018688797   -0.020873657
  18   O   :    0.001229949    0.031377148    0.034951755
  19   H   :   -0.001194519    0.003994180    0.010147161

Difference to translation invariance:
           :    0.0000000001    0.0000000003    0.0000000002

Difference to rotation invariance:
           :    0.0038860570    0.0038953642   -0.0034944817

Norm of the Cartesian gradient     ...    0.1844386172
RMS gradient                       ...    0.0244294916
MAX gradient                       ...    0.0689778291

-------
TIMINGS
-------

Total SCF gradient time     ....        1.718 sec

Densities                   ....       0.001 sec  (  0.1%)
One electron gradient       ....       0.054 sec  (  3.1%)
RI-J Coulomb gradient       ....       0.261 sec  ( 15.2%)
COSX gradient               ....       0.877 sec  ( 51.0%)
XC gradient                 ....       0.257 sec  ( 15.0%)
CPCM gradient               ....       0.212 sec  ( 12.3%)
   A-Matrix (El+Nuc)        ....       0.067 sec  (  3.9%)
[...]
RMS gradient                       ...    0.0002676105
MAX gradient                       ...    0.0005710809

------------------
CARTESIAN GRADIENT
------------------

   1   Zn  :    0.000597753   -0.000824080   -0.000824026
   2   H   :   -0.000558044   -0.001474975    0.000093998
   3   O   :    0.000382800    0.002212337    0.000941524
   4   H   :   -0.000472392   -0.000792264   -0.000322380
   5   H   :   -0.000027250    0.000064339    0.000316122
   6   O   :   -0.000075080   -0.000718679    0.000101800
   7   H   :    0.000161816    0.000229154   -0.000026410
   8   H   :    0.000186308   -0.000065720    0.000002117
   9   O   :   -0.000587637    0.000537773   -0.000050509
  10   H   :    0.000322309    0.000213145   -0.000193624
  11   H   :    0.000364385   -0.000083340    0.000243140
  12   O   :    0.000326343    0.000978899   -0.000616523
  13   H   :   -0.000347525   -0.000134509   -0.000199961
  14   H   :    0.000019596    0.000423071   -0.000642057
  15   O   :   -0.000711336   -0.000930971    0.000747530
  16   H   :    0.000390965    0.000463301   -0.000147727
  17   H   :   -0.000041441   -0.000240439   -0.000330514
  18   O   :    0.000031292    0.000548845    0.001209801
  19   H   :    0.000037138   -0.000405886   -0.000302302

Difference to translation invariance:
           :    0.0000000001    0.0000000003    0.0000000003

Difference to rotation invariance:
           :   -0.0020647981    0.0003437053    0.0006976389

Norm of the Cartesian gradient     ...    0.0044272039
RMS gradient                       ...    0.0005863975
MAX gradient                       ...    0.0022123372

-------
TIMINGS
-------

Total SCF gradient time     ....        1.590 sec

Densities                   ....       0.001 sec  (  0.0%)
One electron gradient       ....       0.056 sec  (  3.5%)
RI-J Coulomb gradient       ....       0.199 sec  ( 12.5%)
COSX gradient               ....       0.801 sec  ( 50.4%)
XC gradient                 ....       0.217 sec  ( 13.7%)
CPCM gradient               ....       0.256 sec  ( 16.1%)
   A-Matrix (El+Nuc)        ....       0.085 sec  (  5.4%)
   Potential                ....       0.171 sec  ( 10.8%)

Maximum memory used throughout the entire SCFGRAD-calculation: 30.1 MB
------------------------------------------------------------------------------
                         ORCA GEOMETRY RELAXATION STEP
------------------------------------------------------------------------------

Reading the OPT-File                    .... done
Getting information on internals        .... done
Copying old internal coords+grads       .... done
Making the new internal coordinates     .... (2022 redundants) done
Validating the new internal coordinates .... (2022 redundants) done
Calculating the B-matrix                .... done
Calculating the G,G- and P matrices     .... done
Transforming gradient to internals      .... done
Projecting the internal gradient        .... done
Number of atoms                         ....  19
Number of internal coordinates          .... 103
Current Energy                          .... -2236.951355234 Eh
Current gradient norm                   ....     0.004427204 Eh/bohr
Maximum allowed component of the step   ....  0.300
Current trust radius                    ....  0.700
Updating the Hessian (BFGS)             .... done
Forming the augmented Hessian           .... done
Diagonalizing the augmented Hessian     .... done
Last element of RFO vector              ....  0.992482673
Lowest eigenvalues of augmented Hessian:
 -0.000066678  0.000410000  0.001388289  0.001793418  0.005324132
Length of the computed step             ....  0.123312203
The final length of the internal step   ....  0.123312203
Converting the step to Cartesian space:
 Initial RMS(Int)=    0.0121503124
Transforming coordinates:
 Iter   0:  RMS(Cart)=    0.0168909497 RMS(Int)=    0.0121618241
done
Storing new coordinates                 .... done
The predicted energy change is          ....    -0.000033846
Previously predicted energy change      ....    -0.000035691
Actually observed energy change         ....    -0.000051160
Ratio of predicted to observed change   ....     1.433428224
New trust radius                        ....     0.700000000

                                .--------------------.
          ----------------------|Geometry convergence|-------------------------
          Item                value                   Tolerance       Converged
          ---------------------------------------------------------------------
          Energy change      -0.0000511604            0.0000050000      NO
          RMS gradient        0.0003196042            0.0001000000      NO
          MAX gradient        0.0012502111            0.0003000000      NO
          RMS step            0.0121503124            0.0020000000      NO
          MAX step            0.0383281349            0.0040000000      NO
          ........................................................
          Max(Bonds)      0.0043      Max(Angles)    0.71
          Max(Dihed)        2.20      Max(Improp)    0.00
          ---------------------------------------------------------------------

The optimization has not yet converged - more geometry cycles are needed


    ---------------------------------------------------------------------------
                         Redundant Internal Coordinates
                            (Angstroem and degrees)

        Definition                    Value    dE/dq     Step     New-Value
    ----------------------------------------------------------------------------
     1. B(O   2,H   1)                0.9734  0.001250 -0.0006    0.9728   
     2. B(O   2,Zn  0)                2.1025  0.000299 -0.0028    2.0997   
     3. B(H   3,O   2)                0.9725  0.000118 -0.0000    0.9725   
     4. B(O   5,H   4)                0.9717 -0.000221  0.0004    0.9721   
     5. B(O   5,Zn  0)                2.1047  0.000218  0.0027    2.1074   
     6. B(H   6,O   5)                0.9718  0.000174 -0.0002    0.9716   
     7. B(O   8,Zn  0)                2.1115  0.000726 -0.0043    2.1072   
     8. B(O   8,H   7)                0.9719 -0.000130  0.0009    0.9728   
     9. B(H   9,O   8)                0.9723  0.000412 -0.0001    0.9722   
    10. B(O  11,H  10)                0.9712 -0.000241 -0.0002    0.9710   
    11. B(O  11,Zn  0)                2.0950 -0.000976 -0.0000    2.0950   
    12. B(H  12,O  11)                0.9714 -0.000274  0.0003    0.9717   
    13. B(O  14,H  13)                0.9708 -0.000717 -0.0002    0.9706   
    14. B(O  14,Zn  0)                2.1079  0.000092 -0.0005    2.1074   
    15. B(H  15,O  14)                0.9725  0.000499 -0.0003    0.9722   
    16. B(O  17,H  16)                0.9722  0.000276  0.0000    0.9722   
    17. B(O  17,Zn  0)                2.0996 -0.000388  0.0040    2.1036   
    18. B(H  18,O  17)                0.9720  0.000112 -0.0001    0.9719   
    19. A(O  11,Zn  0,O  17)           91.24 -0.000345    0.46     91.71   
    20. A(O   8,Zn  0,O  17)           93.89  0.000265   -0.71     93.18   
    21. A(O  11,Zn  0,O  14)           89.40  0.000140   -0.17     89.23   
    22. A(O   5,Zn  0,O  14)           92.37  0.000049    0.36     92.73   
    23. A(O   2,Zn  0,O  14)           86.21 -0.000509    0.14     86.34   
    24. A(O   5,Zn  0,O   8)           93.54  0.000400   -0.39     93.15   
    25. A(O   2,Zn  0,O  17)           94.29  0.000646   -0.30     94.00   
    26. A(O   5,Zn  0,O  17)           87.17 -0.000189   -0.19     86.98   
    27. A(O   8,Zn  0,O  11)          174.82  0.000077    0.26    175.07   
    28. A(O   8,Zn  0,O  14)           85.46 -0.000063    0.42     85.88   
    29. A(O   2,Zn  0,O  11)           90.87 -0.000250   -0.28     90.59   
    30. A(O   5,Zn  0,O  11)           86.03 -0.000399    0.49     86.52   
    31. A(O   2,Zn  0,O   8)           89.42  0.000207    0.24     89.66   
    32. A(H   1,O   2,H   3)          104.93 -0.000551    0.03    104.97   
    33. A(Zn  0,O   2,H   1)          115.96 -0.000215    0.26    116.22   
    34. A(Zn  0,O   2,H   3)          113.44  0.000843    0.38    113.82   
    35. A(H   4,O   5,H   6)          105.49 -0.000243   -0.14    105.34   
    36. A(Zn  0,O   5,H   6)          117.24 -0.000017   -0.26    116.98   
    37. A(Zn  0,O   5,H   4)          114.47  0.000284   -0.24    114.23   
    38. A(H   7,O   8,H   9)          105.37 -0.000163   -0.00    105.37   
    39. A(Zn  0,O   8,H   9)          116.39  0.000111    0.18    116.57   
    40. A(Zn  0,O   8,H   7)          115.14 -0.000065    0.10    115.24   
    41. A(Zn  0,O  11,H  10)          118.54  0.000244    0.24    118.77   
    42. A(H  10,O  11,H  12)          105.52 -0.000418    0.09    105.61   
    43. A(Zn  0,O  11,H  12)          116.03  0.000096    0.12    116.14   
    44. A(H  13,O  14,H  15)          105.53  0.000148    0.03    105.56   
    45. A(Zn  0,O  14,H  15)          112.59 -0.000467    0.39    112.98   
    46. A(Zn  0,O  14,H  13)          116.97  0.000090   -0.24    116.73   
    47. A(H  16,O  17,H  18)          105.35 -0.000438    0.01    105.36   
    48. A(Zn  0,O  17,H  18)          117.70  0.000461   -0.59    117.11   
    49. A(Zn  0,O  17,H  16)          116.10  0.000157    0.08    116.19   
    50. D(H   1,O   2,Zn  0,O  11)    -54.71  0.000262   -0.85    -55.56   
    51. D(H   1,O   2,Zn  0,O  17)     36.60 -0.000091   -0.41     36.19   
    52. D(H   3,O   2,Zn  0,O  11)     66.86  0.000038   -0.30     66.56   
    53. D(H   3,O   2,Zn  0,O  14)    -22.48 -0.000111   -0.14    -22.62   
    54. D(H   1,O   2,Zn  0,O   8)    130.46  0.000187   -1.10    129.36   
    55. D(H   1,O   2,Zn  0,O  14)   -144.05  0.000113   -0.70   -144.75   
    56. D(H   3,O   2,Zn  0,O   8)   -107.97 -0.000037   -0.55   -108.51   
    57. D(H   3,O   2,Zn  0,O  17)    158.17 -0.000315    0.14    158.31   
    58. D(H   6,O   5,Zn  0,O  11)   -122.14 -0.000241   -0.51   -122.65   
    59. D(H   4,O   5,Zn  0,O  17)     22.07  0.000172   -0.31     21.76   
    60. D(H   6,O   5,Zn  0,O   8)     52.68 -0.000166   -0.26     52.42   
    61. D(H   4,O   5,Zn  0,O  11)    113.51 -0.000141    0.15    113.66   
    62. D(H   4,O   5,Zn  0,O   8)    -71.66 -0.000065    0.40    -71.26   
    63. D(H   6,O   5,Zn  0,O  14)    -32.91 -0.000120   -0.69    -33.60   
    64. D(H   4,O   5,O   2,H   3)    179.41 -0.000294   -0.19    179.23   
    65. D(H   4,O   5,O   2,H   1)     59.13  0.000216   -0.82     58.31   
    66. D(H   6,O   5,Zn  0,O  17)    146.42  0.000071   -0.97    145.45   
    67. D(H   6,O   5,O   2,H   1)   -175.12  0.000429   -1.61   -176.73   
    68. D(H   6,O   5,O   2,H   3)    -54.83 -0.000081   -0.97    -55.81   
    69. D(H   4,O   5,Zn  0,O  14)   -157.25 -0.000020   -0.04   -157.29   
    70. D(H   7,O   8,Zn  0,O  11)   -123.25 -0.000019    1.04   -122.21   
    71. D(H   7,O   8,Zn  0,O  17)     64.26  0.000202    0.47     64.73   
    72. D(H   7,O   8,Zn  0,O  14)   -116.24  0.000069    0.63   -115.61   
    73. D(H   9,O   8,Zn  0,O   5)     27.63  0.000247   -0.05     27.57   
    74. D(H   7,O   8,Zn  0,O   5)    151.66  0.000054    0.21    151.87   
    75. D(H   9,O   8,Zn  0,O   2)   -154.03 -0.000265    0.48   -153.55   
    76. D(H   7,O   8,Zn  0,O   2)    -30.00 -0.000458    0.74    -29.26   
    77. D(H  10,O  11,Zn  0,O  14)    110.63 -0.000096   -0.92    109.72   
    78. D(H  10,O  11,Zn  0,O   8)    117.62 -0.000010   -1.32    116.29   
    79. D(H  10,O  11,Zn  0,O   5)   -156.95 -0.000051   -0.55   -157.50   
    80. D(H  10,O  11,Zn  0,O   2)     24.44  0.000408   -1.05     23.38   
    81. D(H  12,O  11,Zn  0,O   5)    -29.75 -0.000340   -0.04    -29.79   
    82. D(H  12,O  11,Zn  0,O   2)    151.64  0.000119   -0.54    151.09   
    83. D(H  10,O  11,Zn  0,O  17)    -69.88 -0.000227   -0.76    -70.64   
    84. D(H  15,O  14,Zn  0,O  11)    159.99 -0.000080   -0.95    159.04   
    85. D(H  15,O  14,Zn  0,O   8)    -19.38 -0.000081   -1.01    -20.39   
    86. D(H  15,O  14,Zn  0,O   5)     73.99  0.000314   -1.42     72.57   
    87. D(H  15,O  14,Zn  0,O   2)   -109.10 -0.000334   -1.21   -110.31   
    88. D(H  13,O  14,Zn  0,O  11)     37.50  0.000047   -1.19     36.30   
    89. D(H  13,O  14,Zn  0,O   8)   -141.87  0.000046   -1.26   -143.13   
    90. D(H  13,O  14,Zn  0,O   5)    -48.50  0.000441   -1.67    -50.17   
    91. D(H  13,O  14,Zn  0,O   2)    128.41 -0.000207   -1.46    126.95   
    92. D(H  18,O  17,O  14,H  15)    -49.48 -0.000094   -1.90    -51.39   
    93. D(H  18,O  17,O  14,H  13)   -171.72  0.000066   -2.20   -173.92   
    94. D(H  16,O  17,O  14,H  15)   -175.90 -0.000110   -1.37   -177.27   
    95. D(H  16,O  17,O  14,H  13)     61.86  0.000050   -1.66     60.20   
    96. D(H  18,O  17,Zn  0,O  11)    150.39  0.000016   -1.01    149.38   
    97. D(H  18,O  17,Zn  0,O   8)    -30.29  0.000006   -0.92    -31.21   
    98. D(H  18,O  17,Zn  0,O   5)   -123.65 -0.000371   -0.55   -124.20   
    99. D(H  18,O  17,Zn  0,O   2)     59.42  0.000278   -0.76     58.67   
   100. D(H  16,O  17,Zn  0,O  11)     24.22  0.000058   -0.54     23.68   
   101. D(H  16,O  17,Zn  0,O   8)   -156.46  0.000049   -0.46   -156.92   
   102. D(H  16,O  17,Zn  0,O   5)    110.18 -0.000329   -0.08    110.10   
   103. D(H  16,O  17,Zn  0,O   2)    -66.75  0.000320   -0.29    -67.04   
    ----------------------------------------------------------------------------

Geometry step timings:
Preparation and reading OPT file:      0.002 s (39.185 %)
Internal coordinates            :      0.000 s ( 1.145 %)
B/P matrices and projection     :      0.001 s (16.392 %)
Hessian update/contruction      :      0.000 s ( 7.164 %)
Making the step                 :      0.001 s (13.443 %)
Converting the step to Cartesian:      0.000 s ( 1.769 %)
Storing new data                :      0.000 s ( 0.572 %)
Checking convergence            :      0.000 s ( 0.278 %)
Final printing                  :      0.001 s (19.983 %)
Total time                      :      0.006 s

Time for energy+gradient        :     10.058 s
Time for complete geometry iter :     11.144 s




    ----------------------------------------------------------------------------
                                  WARNING !!!
       The optimization did not converge but reached the maximum number of
       optimization cycles.
       Please check your results very carefully.
    ----------------------------------------------------------------------------



--------------------------------
SUGGESTED CITATIONS FOR THIS RUN
--------------------------------

Below you find a list of papers that are relevant to this ORCA run
We neither can nor want to force you to cite these papers, but we appreciate if you do
You receive ORCA, which is the product of decades of hard work by many enthusiastic individuals, for free
The only thing we kindly ask in return is that you cite our papers,
We deeply appreciate it, if you show your appreciation for ORCA by not just citing the generic ORCA reference.

Please note that relegating all ORCA citations to the supporting information does *not* help us.
SI sections are not indexed - citations you put there will not count into any citation statistics
But we need these citations in order to attract the funding resources that allow us to do what we are doing

Therefore, if you are a happy ORCA user, please consider citing a few of the papers listed below in the main body of your paper

In addition to the list printed below, the program has created the file zinc_hydrate_1.bibtex that contains the list in bibtex format
You can import this file easily into all common literature databanks and citation aid programs


List of essential papers. We consider these as the minimum necessary citations

  1. Neese,F.
     Software update: the ORCA program system, version 5.0
     WIRES Comput. Molec. Sci., 2022 12(1)e1606
     doi.org/10.1002/wcms.1606

List of papers to cite with high priority. The work reported in these papers was absolutely
necessary for this run to complete.
Our perspective: the developers of density functionals and basis sets usually get cited in chemistry papers
Good! But without the algorithms to do something with them, the functionals or basis sets would not do anything.
Hence, in our opinion, the algorithm design and method developments papers are equally worthy of getting cited

  1. Neese,F.
     An improvement of the resolution of the identity approximation for the formation of the Coulomb matrix
     J. Comp. Chem., 2003 24(14)1740-1747
     doi.org/10.1002/jcc.10318
  2. Neese,F.; Wennmohs,F.; Hansen,A.; Becker,U.
     Efficient, approximate and parallel Hartree-Fock and hybrid DFT calculations. A 'chain-of-spheres' algorithm for the Hartree-Fock exchange
     Chem. Phys., 2009 356(1-3)98-109
     doi.org/10.1016/j.chemphys.2008.10.036
  3. Garcia-Rates,M.; Neese,F.
     Effect of the Solute Cavity on the Solvation Energy and its Derivatives within the Framework of the Gaussian Charge Scheme
     J. Comput. Chem., 2020 41 922-939
     doi.org/10.1002/jcc.26139
  4. Helmich-Paris,B.; de Souza,B.; Neese,F.; Izsák,R.
     An improved chain of spheres for exchange algorithm
     J. Chem. Phys., 2021 155 104109
     doi.org/doi: 10.1063/5.0058766.
  5. Neese,F.
     The SHARK Integral Generation and Digestion System
     J. Comp. Chem., 2022  1-16
     doi.org/10.1002/jcc.26942
  6. Grimme,S.; Antony,J.; Ehrlich,S.; Krieg,H.
     A consistent and accurate ab initio parametrization of density functional dispersion correction (DFT-D) for the 94 elements H-Pu
     J. Chem. Phys., 2010 132 154104
     doi.org/10.1063/1.3382344
  7. Grimme,S.; Ehrlich,S.; Goerigk,L.
     Effect of the damping function in dispersion corrected density functional theory
     J. Comput. Chem., 2011 32(7)1456-1465
     doi.org/10.1002/jcc.21759

List of suggested additional citations. These are papers that are important in the 'surrounding' of 
of this run, or papers that preceded the highly important papers. If you like your results we are grateful for a citation.

  1. Izsak,R.; Neese,F.
     An overlap fitted chain of spheres exchange method
     J. Chem. Phys., 2011 135 144105
     doi.org/10.1063/1.3646921
  2. Izsak,R.; Hansen,A.; Neese,F.
     The resolution of identity and chain of spheres approximations for the LPNO-CCSD singles Fock term
     Molec. Phys., 2012 110 2413-2417
     doi.org/10.1080/00268976.2012.687466
  3. Neese,F.
     The ORCA program system
     WIRES Comput. Molec. Sci., 2012 2(1)73-78
     doi.org/10.1002/wcms.81
  4. Izsak,R.; Neese,F.; Klopper,W.
     Robust fitting techniques in the chain of spheres approximation to the Fock exchange: The role of the complementary space
     J. Chem. Phys., 2013 139 
     doi.org/10.1063/1.4819264
  5. Neese,F.
     Software update: the ORCA program system, version 4.0
     WIRES Comput. Molec. Sci., 2018 8(1)1-6
     doi.org/10.1002/wcms.1327
  6. Neese,F.; Wennmohs,F.; Becker,U.; Riplinger,C.
     The ORCA quantum chemistry program package
     J. Chem. Phys., 2020 152 Art. No. L224108
     doi.org/10.1063/5.0004608

List of optional additional citations

  1. Neese,F.
     Approximate second-order SCF convergence for spin unrestricted wavefunctions
     Chem. Phys. Lett., 2000 325(1-3)93-98
     doi.org/10.1016/s0009-2614(00)00662-x

Timings for individual modules:

Sum of individual times          ...      563.170 sec (=   9.386 min)
Startup calculation              ...      105.931 sec (=   1.766 min)  18.8 %
SCF iterations                   ...      299.432 sec (=   4.991 min)  53.2 %
SCF Gradient evaluation          ...      157.165 sec (=   2.619 min)  27.9 %
Geometry relaxation              ...        0.641 sec (=   0.011 min)   0.1 %
                             ****ORCA TERMINATED NORMALLY****
TOTAL RUN TIME: 0 days 0 hours 10 minutes 29 seconds 628 msec
