LAMMPS data file via write_data, version 2 Aug 2023, timestep = 200013, units = real

40 atoms
4 atom types

-15 15 xlo xhi
-15 15 ylo yhi
-15 15 zlo zhi

Masses

1 15.9994
2 1.00794
3 15.9994
4 15.9994

Atoms # charge

39 4 -0.2187829995759256 2.2086170812690766 4.150150984891797 -3.6865557772119484 0 0 0
40 4 -0.1692198432239695 1.430698267512042 4.821360449244396 -3.0773024094425736 0 0 0
37 2 0.1325213226819312 4.608969 -3.8286 1.439678 0 0 0
2 3 -0.6488731342727159 -4.093572 -1.399029 1.232661 0 0 0
12 1 -0.1969726339908076 -3.716933 -0.800485 -1.469755 0 0 0
17 1 -0.05699968208170289 -4.63815 0.394721 -1.456949 0 0 0
19 1 -0.2310090499157297 -5.920806 0.372055 -1.088332 0 0 0
24 2 0.1161644747769439 -3.266383 -0.903905 -2.471505 0 0 0
25 2 0.1721098774067026 -4.296793 -1.713952 -1.267466 0 0 0
31 2 0.1340127834290296 -4.175928 1.346007 -1.750676 0 0 0
34 2 0.3130933328986978 -4.133634 -1.554311 2.185145 0 0 0
35 2 0.1316667587205419 -6.532081 1.279261 -1.08624 0 0 0
36 2 0.1599065925735004 -6.402135 -0.556626 -0.765117 0 0 0
1 3 -0.636550629243639 0.17169 2.057246 -1.802725 0 0 0
3 1 -0.0317702831864491 1.050346 0.444506 -0.274697 0 0 0
4 1 0.05028452176580624 -0.305395 -0.008963 0.123537 0 0 0
5 1 0.0002932230909604549 -2.604705 -0.656007 -0.45342 0 0 0
6 1 -0.1114814323400168 -1.339462 -0.192201 -0.812935 0 0 0
8 1 -0.1355364973911914 2.187003 -0.132062 0.311259 0 0 0
9 1 0.2677318529030591 1.257724 1.472379 -1.224712 0 0 0
10 1 -0.1107851560689613 -0.586309 -0.30619 1.466332 0 0 0
11 1 0.266657004417313 -2.854163 -0.945741 0.902383 0 0 0
15 1 -0.1623279266253776 -1.842972 -0.770883 1.852322 0 0 0
16 1 -0.1470941327428535 2.556443 1.878716 -1.546186 0 0 0
21 2 0.1735101216437794 -1.148607 0.030136 -1.86322 0 0 0
22 2 0.1291993243109908 2.04281 -0.949452 1.021547 0 0 0
23 2 0.1206097828336641 0.182952 -0.156 2.226689 0 0 0
29 2 0.1274877289599606 -2.046613 -0.992006 2.905191 0 0 0
30 2 0.2090108814387023 2.698269 2.677347 -2.281971 0 0 0
33 2 0.3784891744002594 0.470608 2.763201 -2.390447 0 0 0
7 1 0.02914011163164192 3.494118 0.268234 0.005916 0 0 0
13 1 -0.2356455635882835 4.679642 -0.392949 0.686038 0 0 0
14 1 -0.1166072720520517 3.66369 1.284465 -0.938877 0 0 0
18 1 -0.07545817204662189 4.666704 -1.892876 0.565789 0 0 0
20 1 -0.2534055290448992 4.6241 -2.745812 1.592897 0 0 0
26 2 0.1219762549474889 5.607406 0.003244 0.237321 0 0 0
27 2 0.1291914373656826 4.705088 -0.115308 1.754873 0 0 0
28 2 0.1228778049539526 4.669291 1.619038 -1.208331 0 0 0
32 2 0.1223555671898725 4.673208 -2.284922 -0.459296 0 0 0
38 2 0.1302300030507156 4.60538 -2.389875 2.628982 0 0 0

Velocities

39 -0.000744821939534162 -0.006215027692682279 0.0014031404755074355
40 0.0025921653383344304 -0.0019719514679086302 0.0012581874006634202
37 0 0 0
2 0 0 0
12 0 0 0
17 0 0 0
19 0 0 0
24 0 0 0
25 0 0 0
31 0 0 0
34 0 0 0
35 0 0 0
36 0 0 0
1 0 0 0
3 0 0 0
4 0 0 0
5 0 0 0
6 0 0 0
8 0 0 0
9 0 0 0
10 0 0 0
11 0 0 0
15 0 0 0
16 0 0 0
21 0 0 0
22 0 0 0
23 0 0 0
29 0 0 0
30 0 0 0
33 0 0 0
7 0 0 0
13 0 0 0
14 0 0 0
18 0 0 0
20 0 0 0
26 0 0 0
27 0 0 0
28 0 0 0
32 0 0 0
38 0 0 0
