
                                 *****************
                                 * O   R   C   A *
                                 *****************

                                            #,                                       
                                            ###                                      
                                            ####                                     
                                            #####                                    
                                            ######                                   
                                           ########,                                 
                                     ,,################,,,,,                         
                               ,,#################################,,                 
                          ,,##########################################,,             
                       ,#########################################, ''#####,          
                    ,#############################################,,   '####,        
                  ,##################################################,,,,####,       
                ,###########''''           ''''###############################       
              ,#####''   ,,,,##########,,,,          '''####'''          '####       
            ,##' ,,,,###########################,,,                        '##       
           ' ,,###''''                  '''############,,,                           
         ,,##''                                '''############,,,,        ,,,,,,###''
      ,#''                                            '''#######################'''  
     '                                                          ''''####''''         
             ,#######,   #######,   ,#######,      ##                                
            ,#'     '#,  ##    ##  ,#'     '#,    #''#        ,####,   ,####,        
            ##       ##  ##   ,#'  ##            #'  '#       #'       #'  '#        
            ##       ##  #######   ##           ,######,      #####,   #    #        
            '#,     ,#'  ##    ##  '#,     ,#' ,#      #,     #,   #   #,  ,#        
             '#######'   ##     ##  '#######'  #'      '#     '####' # '####'        



                #########################################################
                #                        -***-                          #
                #          Department of theory and spectroscopy        #
                #                                                       #
                #                      Frank Neese                      #
                #                                                       #
                #     Directorship, Architecture, Infrastructure        #
                #                    SHARK, DRIVERS                     #
                #        Core code/Algorithms in most modules           #
                #                                                       #
                #        Max Planck Institute fuer Kohlenforschung      #
                #                Kaiser Wilhelm Platz 1                 #
                #                 D-45470 Muelheim/Ruhr                 #
                #                      Germany                          #
                #                                                       #
                #                  All rights reserved                  #
                #                        -***-                          #
                #########################################################


                         Program Version 6.0.1  -  RELEASE   -


 With contributions from (in alphabetic order):
[Max-Planck-Institut fuer Kohlenforschung]                               
  Daniel Aravena         : Magnetic Suceptibility                        
  Michael Atanasov       : Ab Initio Ligand Field Theory (pilot matlab implementation)
  Alexander A. Auer      : GIAO ZORA, VPT2 properties, NMR spectrum      
  Ute Becker             : All parallelization in ORCA, NUMFREQ, NUMCALC 
  Giovanni Bistoni       : ED, misc. LED, open-shell LED, HFLD           
  Martin Brehm           : Molecular dynamics                            
  Dmytro Bykov           : pre 5.0 version of the SCF Hessian            
  Marcos Casanova-Páez   : Triplet and SCS-CIS(D). UHF-(DLPNO)-IP/EA/STEOM-CCSD. UHF-CVS-IP/STEOM-CCSD   
  Vijay G. Chilkuri      : MRCI spin determinant printing, contributions to CSF-ICE 
  Pauline Colinet        : FMM embedding                                 
  Dipayan Datta          : RHF DLPNO-CCSD density                        
  Achintya Kumar Dutta   : EOM-CC, STEOM-CC                              
  Nicolas Foglia         : Exact transition moments, OPA infrastructure, MCD improvements    
  Dmitry Ganyushin       : Spin-Orbit,Spin-Spin,Magnetic field MRCI      
  Miquel Garcia-Rates    : C-PCM and meta-GGA Hessian, CCSD/C-PCM, Gaussian charge scheme 
  Tiago L. C. Gouveia    : GS-ROHF, GS-ROCIS                             
  Yang Guo               : DLPNO-NEVPT2, F12-NEVPT2, CIM, IAO-localization        
  Andreas Hansen         : Spin unrestricted coupled pair/coupled cluster methods 
  Ingolf Harden          : AUTO-CI MPn and infrastructure                
  Benjamin Helmich-Paris : MC-RPA, TRAH-(SCF,CASSCF), AVAS, COSX integrals, SCF dyn. polar. 
  Lee Huntington         : MR-EOM, pCC                                   
  Robert Izsak           : Overlap fitted RIJCOSX, COSX-SCS-MP3, EOM     
  Riya Kayal             : Wick's Theorem for AUTO-CI, AUTO-CI UHF-CCSDT 
  Emily Kempfer          : AUTO-CI, RHF CISDT and CCSDT                  
  Christian Kollmar      : KDIIS, OOCD, Brueckner-CCSD(T), CCSD density, CASPT2, CASPT2-K, improved NEVPT2 
  Axel Koslowski         : Symmetry handling                             
  Simone Kossmann        : meta-GGA functionals, TD-DFT gradient, OOMP2, (MP2 Hessian; deprecated post 5.0) 
  Lucas Lang             : DCDCAS                                        
  Marvin Lechner         : AUTO-CI (C++ implementation), FIC-MRCC        
  Spencer Leger          : CASSCF response                               
  Dagmar Lenk            : GEPOL surface, SMD, ORCA-2-JSON               
  Dimitrios Liakos       : Extrapolation schemes; Compound Job, initial MDCI parallelization 
  Dimitrios Manganas     : Further ROCIS development; embedding schemes. LFT, Crystal Embedding 
  Dimitrios Pantazis     : SARC Basis sets                               
  Anastasios Papadopoulos: AUTO-CI, single reference methods and gradients 
  Taras Petrenko         : pre 6.0 DFT Hessian and TD-DFT gradient, (ASA, deprecated), ECA, 1-Electron XAS/XES, NRVS 
  Peter Pinski           : DLPNO-MP2, DLPNO-MP2 Gradient                 
  Christoph Reimann      : Effective Core Potentials                     
  Marius Retegan         : Local ZFS, SOC                                
  Christoph Riplinger    : Optimizer, TS searches, QM/MM, DLPNO-CCSD(T), (RO)-DLPNO pert. Triples 
  Michael Roemelt        : Original ROCIS implementation                 
  Masaaki Saitow         : Open-shell DLPNO-CCSD energy and density      
  Barbara Sandhoefer     : DKH picture change effects                    
  Kantharuban Sivalingam : CASSCF convergence/infrastructure, NEVPT2 and variants, FIC-MRCI 
  Bernardo de Souza      : ESD, SOC TD-DFT                               
  Georgi L. Stoychev     : AutoAux, RI-MP2 NMR, DLPNO-MP2 response, X2C  
  Van Anh Tran           : RI-MP2 g-tensors                              
  Willem Van den Heuvel  : Paramagnetic NMR                              
  Zikuan Wang            : NOTCH, Electric field optimization            
  Frank Wennmohs         : Technical directorship and infrastructure     
  Hang Xu                : AUTO-CI-Response properties                   
                                                                         
[FACCTs GmbH]                                                            
  Markus Bursch, Miquel Garcia-Rates, Christoph Riplinger, Bernardo de Souza, Georgi L. Stoychev 
                                                                 
  APM, Basis sets (HGBS, AHGBS, def-TZVP (Ac-Lr), def2-XVPD (La-Lu)), CI-OPT, improved COSX, DLPNO-Multilevel,           
  DOCKER, DRACO, updates on ESD, GOAT, IRC, LR-CPCM, MBIS, meta-GGA TD-DFT gradient, ML-optimized integration grids, 
  MM, NACMEs, nearIR, NEB, NEB-TS, NL-DFT gradient (VV10), 2- and 3-layer-ONIOM, interface openCOSMO-RS, QMMM,   
  Crystal-QMMM, SF, symmetry and pop. for TD-DFT, r2SCAN hybrids, SOLVATOR                                   
                                                                         
[Other institutions]                                                     
  V. Asgeirsson          : NEB                                           
  Christoph Bannwarth    : sTDA-DFT, sTD-DFT, PBEh-3c, B97-3c, D3        
  Sebastian Ehlert       : rSCAN, r2SCAN, r2SCAN-3c, D4, dhf basis sets  
  Marvin Friede          : D4 for Fr, Ra, Ac-Lr                          
  Lars Goerigk           : TD-DFT with DH, B97 family of functionals     
  Stefan Grimme          : VdW corrections, initial TS optimization, DFT functionals, gCP, sTDA/sTD-DF 
  Waldemar Hujo          : DFT-NL                                        
  H. Jonsson             : NEB                                           
  Holger Kruse           : gCP                                           
  Marcel Mueller         : wB97X-3c, vDZP basis set                      
  Hagen Neugebauer       : wr2SCAN                                       
  Tobias Risthaus        : range-separated hybrid DFT                    
  Lukas Wittmann         : regularized MP2, r2SCAN double-hybrids, wr2SCAN        
                                                                         
We gratefully acknowledge several colleagues who have allowed us to      
interface, adapt or use parts of their codes:                            
  Ed Valeev, F. Pavosevic, A. Kumar             : LibInt (2-el integral package), F12 methods 
  Garnet Chan, S. Sharma, J. Yang, R. Olivares  : DMRG                   
  Ulf Ekstrom                                   : XCFun DFT Library      
  Mihaly Kallay                                 : mrcc  (arbitrary order and MRCC methods)
  Frank Weinhold                                : gennbo (NPA and NBO analysis)           
  Simon Mueller                                 : openCOSMO-RS                            
  Christopher J. Cramer and Donald G. Truhlar   : smd solvation model                     
  S Lehtola, MJT Oliveira, MAL Marques          : LibXC Library                           
  Liviu Ungur et al                             : ANISO software                          


 Your calculation uses the libint2 library for the computation of 2-el integrals
 For citations please refer to: http://libint.valeyev.net

 Your ORCA version has been built with support for libXC version: 6.2.2
 For citations please refer to: https://libxc.gitlab.io

 This ORCA versions uses:
   CBLAS   interface :  Fast vector & matrix operations
   LAPACKE interface :  Fast linear algebra routines
   SCALAPACK package :  Parallel linear algebra routines
   Shared memory     :  Shared parallel matrices
   BLAS/LAPACK       :  OpenBLAS 0.3.27  USE64BITINT DYNAMIC_ARCH NO_AFFINITY SkylakeX SINGLE_THREADED
        Core in use  :  SkylakeX
   Copyright (c) 2011-2014, The OpenBLAS Project


NOTE: MaxCore=3000 MB was set to SCF,MP2,MDCI,CIPSI,MRCI and CIS
      => If you want to overwrite this, your respective input block should be placed after the MaxCore statement
Your calculation utilizes the atom-pairwise dispersion correction
with the Becke-Johnson damping scheme (D3BJ)


Warning: RI is on but no J-basis has been assigned. Assigning Def2/J (nothing to worry about!)
================================================================================

----- Orbital basis set information -----
Your calculation utilizes the basis: def2-SVP
   F. Weigend and R. Ahlrichs, Phys. Chem. Chem. Phys. 7, 3297 (2005).

----- AuxJ basis set information -----
Your calculation utilizes the auxiliary basis: def2/J
   F. Weigend, Phys. Chem. Chem. Phys. 8, 1057 (2006).

================================================================================
                                        WARNINGS
                       Please study these warnings very carefully!
================================================================================

WARNING: Old DensityContainer found on disk!
         Will remove this file - 
         If you want to keep old densities, please start your calculation with a different basename. 


WARNING: Geometry Optimization
  ===> : Switching off AutoStart
         For restart on a previous wavefunction, please use MOREAD

================================================================================
                                       INPUT FILE
================================================================================
NAME = 4nitroaniline_water_2_OPT.inp
|  1> ! B3LYP def2-SVP OPT TightSCF D3BJ
|  2> 
|  3> 
|  4> %maxcore 3000
|  5> 
|  6> %pal
|  7> nprocs 40
|  8> end
|  9> 
| 10> * xyz 0 1
| 11> O        2.8515802119      0.7211638393      0.9366968446                 
| 12> O        2.7488933113     -0.9837853473     -0.3962714592                 
| 13> N        2.2347845702     -0.0541608210      0.2154706914                 
| 14> N       -3.3105216888      0.6859596170     -0.3344756169                 
| 15> C        0.7985883426      0.1410080764      0.0758159059                 
| 16> C       -1.9706220701      0.5173419310     -0.1942456137                 
| 17> C        0.1714001310      1.1891728575      0.7592428377                 
| 18> C        0.0590785394     -0.7223001474     -0.7414172657                 
| 19> C       -1.1950781899      1.3753768046      0.6266276238                 
| 20> C       -1.3061811485     -0.5373107901     -0.8749912795                 
| 21> H        0.7756151009      1.8435186923      1.3871337959                 
| 22> H        0.5779887452     -1.5282803173     -1.2596667730                 
| 23> H       -1.6866063934      2.1934209771      1.1597535408                 
| 24> H       -1.8996586210     -1.1994712209     -1.5069527892                 
| 25> H       -3.7817827867      1.4396974943      0.1441506716                 
| 26> H       -3.8453978105      0.0610271739     -0.9359960621                 
| 27> O       -3.2293368887      2.5469680834     -2.5382122231                 
| 28> H       -3.6133460500      2.0743096896     -1.7862868262                 
| 29> H       -3.9830842353      2.9851278925     -2.9578715912                 
| 30> *           
| 31> 
| 32> 
| 33>                          ****END OF INPUT****
================================================================================

                       *****************************
                       * Geometry Optimization Run *
                       *****************************

Geometry optimization settings:
Update method            Update   .... BFGS
Choice of coordinates    CoordSys .... (2022) Redundant Internals
Initial Hessian          InHess   .... Almloef's Model
Max. no of cycles        MaxIter  .... 57

Convergence Tolerances:
Energy Change            TolE     ....  5.0000e-06 Eh
Max. Gradient            TolMAXG  ....  3.0000e-04 Eh/bohr
RMS Gradient             TolRMSG  ....  1.0000e-04 Eh/bohr
Max. Displacement        TolMAXD  ....  4.0000e-03 bohr
RMS Displacement         TolRMSD  ....  2.0000e-03 bohr
Strict Convergence                .... False

------------------------------------------------------------------------------
                        ORCA OPTIMIZATION COORDINATE SETUP
------------------------------------------------------------------------------

The optimization will be done in redundant internal coordinates (2022)
Making redundant internal coordinates   ...  (2022 redundants) done
Evaluating the initial hessian          ...  (Almloef) done
Evaluating the coordinates              ...  done
Calculating the B-matrix                .... done
Calculating the G-matrix                .... done
Diagonalizing the G-matrix              .... done
The first mode is                       ....   56
The number of degrees of freedom        ....   51

    -----------------------------------------------------------------
                    Redundant Internal Coordinates


    -----------------------------------------------------------------
         Definition                    Initial Value    Approx d2E/dq
    -----------------------------------------------------------------
      1. B(N   2,O   0)                  1.2255         0.917357   
      2. B(N   2,O   1)                  1.2259         0.915975   
      3. B(C   4,N   2)                  1.4561         0.438937   
      4. B(C   5,N   3)                  1.3577         0.630031   
      5. B(C   6,C   4)                  1.3997         0.602982   
      6. B(C   7,C   4)                  1.4000         0.602224   
      7. B(C   8,C   5)                  1.4183         0.563139   
      8. B(C   8,C   6)                  1.3855         0.635286   
      9. B(C   9,C   7)                  1.3842         0.638262   
     10. B(C   9,C   5)                  1.4203         0.559027   
     11. B(H  10,C   6)                  1.0897         0.360470   
     12. B(H  11,C   7)                  1.0897         0.360492   
     13. B(H  12,C   8)                  1.0932         0.355932   
     14. B(H  13,C   9)                  1.0909         0.358921   
     15. B(H  14,N   3)                  1.0096         0.433345   
     16. B(H  15,N   3)                  1.0190         0.418561   
     17. B(H  17,H  15)                  2.1978         0.001178   
     18. B(H  17,H  14)                  2.0390         0.002110   
     19. B(H  17,N   3)                  2.0315         0.010150   
     20. B(H  17,O  16)                  0.9676         0.505629   
     21. B(H  18,O  16)                  0.9676         0.505656   
     22. A(O   0,N   2,C   4)          117.9099         0.429116   
     23. A(O   0,N   2,O   1)          124.2223         0.487362   
     24. A(O   1,N   2,C   4)          117.8678         0.429000   
     25. A(H  14,N   3,H  15)          119.5161         0.301722   
     26. A(C   5,N   3,H  15)          120.1848         0.357621   
     27. A(C   5,N   3,H  14)          120.2918         0.359740   
     28. A(H  15,N   3,H  17)           85.3551         0.179949   
     29. A(H  14,N   3,H  17)           76.0545         0.180667   
     30. A(C   5,N   3,H  17)          107.8058         0.204755   
     31. A(C   6,C   4,C   7)          120.6712         0.429649   
     32. A(N   2,C   4,C   6)          119.7035         0.403507   
     33. A(N   2,C   4,C   7)          119.6253         0.403417   
     34. A(N   3,C   5,C   8)          121.6200         0.425075   
     35. A(C   8,C   5,C   9)          118.0886         0.418815   
     36. A(N   3,C   5,C   9)          120.2914         0.424518   
     37. A(C   8,C   6,H  10)          121.4207         0.354429   
     38. A(C   4,C   6,H  10)          118.8526         0.351313   
     39. A(C   4,C   6,C   8)          119.7267         0.433795   
     40. A(C   4,C   7,C   9)          119.6637         0.434061   
     41. A(C   9,C   7,H  11)          121.5090         0.354714   
     42. A(C   4,C   7,H  11)          118.8273         0.351242   
     43. A(C   6,C   8,H  12)          119.8258         0.353669   
     44. A(C   5,C   8,C   6)          120.8916         0.428501   
     45. A(C   5,C   8,H  12)          119.2825         0.346546   
     46. A(C   5,C   9,C   7)          120.9582         0.428297   
     47. A(C   7,C   9,H  13)          120.7551         0.354452   
     48. A(C   5,C   9,H  13)          118.2868         0.346606   
     49. A(N   3,H  14,H  17)           75.2248         0.140974   
     50. A(N   3,H  15,H  17)           67.1187         0.134192   
     51. A(H  17,O  16,H  18)          104.4235         0.318910   
     52. A(H  14,H  17,O  16)          157.0026         0.142821   
     53. A(N   3,H  17,O  16)          146.1020         0.183924   
     54. A(H  14,H  17,H  15)           48.6916         0.100042   
     55. A(N   3,H  17,H  15)           27.5261         0.108474   
     56. A(H  15,H  17,O  16)          142.1887         0.136167   
     57. A(N   3,H  17,H  14)           28.7207         0.111222   
     58. D(C   7,C   4,N   2,O   0)    179.8703         0.015173   
     59. D(C   7,C   4,N   2,O   1)     -0.1294         0.015173   
     60. D(C   6,C   4,N   2,O   0)     -0.1210         0.015173   
     61. D(C   6,C   4,N   2,O   1)    179.8794         0.015173   
     62. D(C   8,C   5,N   3,H  14)      0.4916         0.035046   
     63. D(C   8,C   5,N   3,H  17)     84.4340         0.035046   
     64. D(C   9,C   5,N   3,H  15)     -0.5424         0.035046   
     65. D(C   9,C   5,N   3,H  14)   -179.5575         0.035046   
     66. D(C   8,C   5,N   3,H  15)    179.5068         0.035046   
     67. D(H  10,C   6,C   4,C   7)   -179.9821         0.025078   
     68. D(C   8,C   6,C   4,C   7)      0.0039         0.025078   
     69. D(H  10,C   6,C   4,N   2)      0.0090         0.025078   
     70. D(C   8,C   6,C   4,N   2)    179.9950         0.025078   
     71. D(C   9,C   7,C   4,C   6)      0.0060         0.025012   
     72. D(C   9,C   7,C   4,N   2)   -179.9851         0.025012   
     73. D(H  11,C   7,C   4,C   6)    179.9929         0.025012   
     74. D(H  11,C   7,C   4,N   2)      0.0018         0.025012   
     75. D(H  12,C   8,C   6,H  10)     -0.0217         0.028013   
     76. D(H  12,C   8,C   6,C   4)    179.9927         0.028013   
     77. D(C   5,C   8,C   6,H  10)    179.9662         0.028013   
     78. D(C   5,C   8,C   6,C   4)     -0.0194         0.028013   
     79. D(H  12,C   8,C   5,C   9)   -179.9876         0.021732   
     80. D(H  12,C   8,C   5,N   3)     -0.0357         0.021732   
     81. D(C   6,C   8,C   5,C   9)      0.0245         0.021732   
     82. D(C   6,C   8,C   5,N   3)    179.9764         0.021732   
     83. D(C   5,C   9,C   7,C   4)     -0.0004         0.028294   
     84. D(H  13,C   9,C   5,C   8)    179.9766         0.021404   
     85. D(H  13,C   9,C   5,N   3)      0.0241         0.021404   
     86. D(C   7,C   9,C   5,C   8)     -0.0145         0.021404   
     87. D(C   5,C   9,C   7,H  11)   -179.9870         0.028294   
     88. D(C   7,C   9,C   5,N   3)   -179.9670         0.021404   
     89. D(H  13,C   9,C   7,H  11)      0.0221         0.028294   
     90. D(H  13,C   9,C   7,C   4)   -179.9913         0.028294   
     91. D(H  17,H  14,N   3,H  15)    -76.3220         0.240584   
     92. D(H  17,H  14,N   3,C   5)    102.6998         0.240584   
     93. D(H  17,H  15,N   3,H  14)     71.1041         0.220410   
     94. D(H  17,H  15,N   3,C   5)   -107.9187         0.220410   
     95. D(H  15,H  17,O  16,H  18)    120.7514         0.356784   
     96. D(H  14,H  17,O  16,H  18)   -132.9712         0.356784   
     97. D(N   3,H  17,O  16,H  18)    168.2396         0.356784   
     98. D(O  16,H  17,H  15,N   3)    117.1817         0.001514   
     99. D(H  15,H  17,H  14,N   3)     31.4617         0.001544   
    100. D(O  16,H  17,H  14,N   3)    -96.9626         0.001544   
    101. D(H  15,H  17,N   3,C   5)    120.2473         0.001570   
    102. D(H  14,H  17,N   3,H  15)    121.9702         0.001570   
    103. D(H  14,H  17,H  15,N   3)    -32.8672         0.001514   
    104. D(H  14,H  17,N   3,C   5)   -117.7826         0.001570   
    105. D(O  16,H  17,N   3,H  15)   -102.0849         0.001570   
    106. D(O  16,H  17,N   3,H  14)    135.9449         0.001570   
    107. D(O  16,H  17,N   3,C   5)     18.1624         0.001570   
    -----------------------------------------------------------------

Number of atoms                         .... 19
Number of degrees of freedom            .... 107


         *************************************************************
         *                GEOMETRY OPTIMIZATION CYCLE   1            *
         *************************************************************
---------------------------------
CARTESIAN COORDINATES (ANGSTROEM)
---------------------------------
  O      2.851580    0.721164    0.936697
  O      2.748893   -0.983785   -0.396271
  N      2.234785   -0.054161    0.215471
  N     -3.310522    0.685960   -0.334476
  C      0.798588    0.141008    0.075816
  C     -1.970622    0.517342   -0.194246
  C      0.171400    1.189173    0.759243
  C      0.059079   -0.722300   -0.741417
  C     -1.195078    1.375377    0.626628
  C     -1.306181   -0.537311   -0.874991
  H      0.775615    1.843519    1.387134
  H      0.577989   -1.528280   -1.259667
  H     -1.686606    2.193421    1.159754
  H     -1.899659   -1.199471   -1.506953
  H     -3.781783    1.439697    0.144151
  H     -3.845398    0.061027   -0.935996
  O     -3.229337    2.546968   -2.538212
  H     -3.613346    2.074310   -1.786287
  H     -3.983084    2.985128   -2.957872

----------------------------
CARTESIAN COORDINATES (A.U.)
----------------------------
  NO LB      ZA    FRAG     MASS         X           Y           Z
   0 O     8.0000    0    15.999    5.388706    1.362802    1.770101
   1 O     8.0000    0    15.999    5.194656   -1.859085   -0.748845
   2 N     7.0000    0    14.007    4.223131   -0.102349    0.407181
   3 N     7.0000    0    14.007   -6.255979    1.296276   -0.632067
   4 C     6.0000    0    12.011    1.509113    0.266467    0.143271
   5 C     6.0000    0    12.011   -3.723936    0.977635   -0.367071
   6 C     6.0000    0    12.011    0.323899    2.247211    1.434761
   7 C     6.0000    0    12.011    0.111642   -1.364949   -1.401076
   8 C     6.0000    0    12.011   -2.258370    2.599085    1.184155
   9 C     6.0000    0    12.011   -2.468325   -1.015370   -1.653494
  10 H     1.0000    0     1.008    1.465700    3.483745    2.621303
  11 H     1.0000    0     1.008    1.092240   -2.888031   -2.380425
  12 H     1.0000    0     1.008   -3.187224    4.144965    2.191617
  13 H     1.0000    0     1.008   -3.589835   -2.266672   -2.847728
  14 H     1.0000    0     1.008   -7.146534    2.720634    0.272405
  15 H     1.0000    0     1.008   -7.266749    0.115325   -1.768776
  16 O     8.0000    0    15.999   -6.102562    4.813072   -4.796526
  17 H     1.0000    0     1.008   -6.828234    3.919877   -3.375593
  18 H     1.0000    0     1.008   -7.526938    5.641074   -5.589567

--------------------------------
INTERNAL COORDINATES (ANGSTROEM)
--------------------------------
 O      0   0   0     0.000000000000     0.00000000     0.00000000
 O      1   0   0     2.166610446614     0.00000000     0.00000000
 N      1   2   0     1.225451898913    27.89391712     0.00000000
 N      3   1   2     5.621444717407   118.08502238   180.00377263
 C      3   1   2     1.456109186084   117.90991524   180.00038819
 C      4   3   1     1.357728752742     0.53038625     1.83593917
 C      5   3   1     1.399673830654   119.70347252   359.87901829
 C      5   3   1     1.400016391002   119.62529382   179.87025118
 C      7   5   3     1.385468045955   119.72665683   179.99503664
 C      8   5   3     1.384195468452   119.66371118   180.01487029
 H      7   5   3     1.089720724204   118.85260384     0.00000000
 H      8   5   3     1.089703807359   118.82725526     0.00000000
 H      9   7   5     1.093169468278   119.82583284   179.99268353
 H     10   8   5     1.090892889437   120.75506488   180.00866082
 H      4   3   1     1.009599392885   120.82202097     0.32664522
 H      4   3   1     1.019048512092   119.65491105   179.36323047
 O      4   3   1     2.885549949886    97.57786076    87.71864233
 H     17   4   3     0.967605702595    23.11922599   196.88601408
 H     17   4   3     0.967591373489   126.96807902   182.58228632

---------------------------
INTERNAL COORDINATES (A.U.)
---------------------------
 O      0   0   0     0.000000000000     0.00000000     0.00000000
 O      1   0   0     4.094300382994     0.00000000     0.00000000
 N      1   2   0     2.315768479239    27.89391712     0.00000000
 N      3   1   2    10.622990992878   118.08502238   180.00377263
 C      3   1   2     2.751647582786   117.90991524   180.00038819
 C      4   3   1     2.565735506833     0.53038625     1.83593917
 C      5   3   1     2.645000216753   119.70347252   359.87901829
 C      5   3   1     2.645647561994   119.62529382   179.87025118
 C      7   5   3     2.618155174154   119.72665683   179.99503664
 C      8   5   3     2.615750351188   119.66371118   180.01487029
 H      7   5   3     2.059273731205   118.85260384     0.00000000
 H      8   5   3     2.059241762999   118.82725526     0.00000000
 H      9   7   5     2.065790913009   119.82583284   179.99268353
 H     10   8   5     2.061488802478   120.75506488   180.00866082
 H      4   3   1     1.907866357526   120.82202097     0.32664522
 H      4   3   1     1.925722605034   119.65491105   179.36323047
 O      4   3   1     5.452899151034    97.57786076    87.71864233
 H     17   4   3     1.828509783526    23.11922599   196.88601408
 H     17   4   3     1.828482705440   126.96807902   182.58228632

---------------------
BASIS SET INFORMATION
---------------------
There are 4 groups of distinct atoms

 Group   1 Type O   : 7s4p1d contracted to 3s2p1d pattern {511/31/1}
 Group   2 Type N   : 7s4p1d contracted to 3s2p1d pattern {511/31/1}
 Group   3 Type C   : 7s4p1d contracted to 3s2p1d pattern {511/31/1}
 Group   4 Type H   : 4s1p contracted to 2s1p pattern {31/1}

Atom   0O    basis set group =>   1
Atom   1O    basis set group =>   1
Atom   2N    basis set group =>   2
Atom   3N    basis set group =>   2
Atom   4C    basis set group =>   3
Atom   5C    basis set group =>   3
Atom   6C    basis set group =>   3
Atom   7C    basis set group =>   3
Atom   8C    basis set group =>   3
Atom   9C    basis set group =>   3
Atom  10H    basis set group =>   4
Atom  11H    basis set group =>   4
Atom  12H    basis set group =>   4
Atom  13H    basis set group =>   4
Atom  14H    basis set group =>   4
Atom  15H    basis set group =>   4
Atom  16O    basis set group =>   1
Atom  17H    basis set group =>   4
Atom  18H    basis set group =>   4
---------------------------------
AUXILIARY/J BASIS SET INFORMATION
---------------------------------
There are 4 groups of distinct atoms

 Group   1 Type O   : 12s5p4d2f1g contracted to 6s4p3d1f1g pattern {711111/2111/211/2/1}
 Group   2 Type N   : 12s5p4d2f1g contracted to 6s4p3d1f1g pattern {711111/2111/211/2/1}
 Group   3 Type C   : 12s5p4d2f1g contracted to 6s4p3d1f1g pattern {711111/2111/211/2/1}
 Group   4 Type H   : 5s2p1d contracted to 3s1p1d pattern {311/2/1}

Atom   0O    basis set group =>   1
Atom   1O    basis set group =>   1
Atom   2N    basis set group =>   2
Atom   3N    basis set group =>   2
Atom   4C    basis set group =>   3
Atom   5C    basis set group =>   3
Atom   6C    basis set group =>   3
Atom   7C    basis set group =>   3
Atom   8C    basis set group =>   3
Atom   9C    basis set group =>   3
Atom  10H    basis set group =>   4
Atom  11H    basis set group =>   4
Atom  12H    basis set group =>   4
Atom  13H    basis set group =>   4
Atom  14H    basis set group =>   4
Atom  15H    basis set group =>   4
Atom  16O    basis set group =>   1
Atom  17H    basis set group =>   4
Atom  18H    basis set group =>   4


           ************************************************************
           *        Program running with 40 parallel MPI-processes    *
           *              working on a common directory               *
           ************************************************************
------------------------------------------------------------------------------
                             ORCA STARTUP CALCULATIONS
                           -- RI-GTO INTEGRALS CHOSEN --
------------------------------------------------------------------------------
------------------------------------------------------------------------------
                   ___                                                        
                  /   \      - P O W E R E D   B Y -                         
                 /     \                                                     
                 |  |  |   _    _      __       _____    __    __             
                 |  |  |  | |  | |    /  \     |  _  \  |  |  /  |          
                  \  \/   | |  | |   /    \    | | | |  |  | /  /          
                 / \  \   | |__| |  /  /\  \   | |_| |  |  |/  /          
                |  |  |   |  __  | /  /__\  \  |    /   |      \           
                |  |  |   | |  | | |   __   |  |    \   |  |\   \          
                \     /   | |  | | |  |  |  |  | |\  \  |  | \   \       
                 \___/    |_|  |_| |__|  |__|  |_| \__\ |__|  \__/        
                                                                              
                      - O R C A' S   B I G   F R I E N D -                    
                                      &                                       
                       - I N T E G R A L  F E E D E R -                       
                                                                              
 v1 FN, 2020, v2 2021, v3 2022-2024                                           
------------------------------------------------------------------------------


----------------------
SHARK INTEGRAL PACKAGE
----------------------

Number of atoms                             ...     19
Number of basis functions                   ...    194
Number of shells                            ...     90
Maximum angular momentum                    ...      2
Integral batch strategy                     ... SHARK/LIBINT Hybrid
RI-J (if used) integral strategy            ... SPLIT-RIJ (Revised 2003 algorithm where possible)
Printlevel                                  ...      1
Contraction scheme used                     ... SEGMENTED contraction
Prescreening option                         ... SCHWARTZ
   Thresh                                   ... 2.500e-11
   Tcut                                     ... 2.500e-12
   Tpresel                                  ... 2.500e-12 
Coulomb Range Separation                    ... NOT USED
Exchange Range Separation                   ... NOT USED
Multipole approximations                    ... NOT USED
Finite Nucleus Model                        ... NOT USED
CABS basis                                  ... NOT available
Auxiliary Coulomb fitting basis             ... AVAILABLE
   # of basis functions in Aux-J            ...    627
   # of shells in Aux-J                     ...    205
   Maximum angular momentum in Aux-J        ...      4
Auxiliary J/K fitting basis                 ... NOT available
Auxiliary Correlation fitting basis         ... NOT available
Auxiliary 'external' fitting basis          ... NOT available

Checking pre-screening integrals            ... done (  0.0 sec) Dimension = 90
Check shell pair data                       ... done (  0.0 sec)
Shell pair information
Shell pair cut-off parameter TPreSel        ...   2.5e-12
Total number of shell pairs                 ...      4095
Shell pairs after pre-screening             ...      3501
Total number of primitive shell pairs       ...     15045
Primitive shell pairs kept                  ...      8972
          la=0 lb=0:   1060 shell pairs
          la=1 lb=0:   1271 shell pairs
          la=1 lb=1:    404 shell pairs
          la=2 lb=0:    443 shell pairs
          la=2 lb=1:    270 shell pairs
          la=2 lb=2:     53 shell pairs

Calculating one electron integrals          ... done (  0.0 sec)
Calculating RI/J V-Matrix + Cholesky decomp.... done (  0.0 sec)
Calculating Nuclear repulsion               ... done (  0.0 sec) ENN=    586.239197342116 Eh

Diagonalization of the overlap matrix:
Smallest eigenvalue                        ... 2.603e-04
Time for diagonalization                   ...    0.004 sec
Threshold for overlap eigenvalues          ... 1.000e-07
Number of eigenvalues below threshold      ... 0
Time for construction of square roots      ...    0.002 sec
Total time needed                          ...    0.007 sec

-------------------
DFT GRID GENERATION
-------------------

General Integration Accuracy     IntAcc      ... 4.388
Radial Grid Type                 RadialGrid  ... OptM3 with GC (2021)
Angular Grid (max. ang.)         AngularGrid ... 4 (Lebedev-302)
Angular grid pruning method      GridPruning ... 4 (adaptive)
Weight generation scheme         WeightScheme... mBecke (2022)
Basis function cutoff            BFCut       ... 1.0000e-11
Integration weight cutoff        WCut        ... 1.0000e-14
Partially contracted basis set               ... off
Rotationally invariant grid construction     ... off
Angular grids for H and He will be reduced by one unit

Total number of grid points                  ...    92170
Total number of batches                      ...     1448
Average number of points per batch           ...       63
Average number of grid points per atom       ...     4851

--------------------
COSX GRID GENERATION
--------------------

GRIDX 1
-------
General Integration Accuracy     IntAcc      ... 3.816
Radial Grid Type                 RadialGrid  ... OptM3 with GC (2021)
Angular Grid (max. ang.)         AngularGrid ... 1 (Lebedev-50)
Angular grid pruning method      GridPruning ... 4 (adaptive)
Weight generation scheme         WeightScheme... mBecke (2022)
Basis function cutoff            BFCut       ... 1.0000e-11
Integration weight cutoff        WCut        ... 1.0000e-14
Partially contracted basis set               ... on
Rotationally invariant grid construction     ... off
Angular grids for H and He will be reduced by one unit

Total number of grid points                  ...    11715
Total number of batches                      ...      101
Average number of points per batch           ...      115
Average number of grid points per atom       ...      617
UseSFitting                                  ... on

GRIDX 2
-------
General Integration Accuracy     IntAcc      ... 4.020
Radial Grid Type                 RadialGrid  ... OptM3 with GC (2021)
Angular Grid (max. ang.)         AngularGrid ... 2 (Lebedev-110)
Angular grid pruning method      GridPruning ... 4 (adaptive)
Weight generation scheme         WeightScheme... mBecke (2022)
Basis function cutoff            BFCut       ... 1.0000e-11
Integration weight cutoff        WCut        ... 1.0000e-14
Partially contracted basis set               ... on
Rotationally invariant grid construction     ... off
Angular grids for H and He will be reduced by one unit

Total number of grid points                  ...    25909
Total number of batches                      ...      211
Average number of points per batch           ...      122
Average number of grid points per atom       ...     1364
UseSFitting                                  ... on

GRIDX 3
-------
General Integration Accuracy     IntAcc      ... 4.338
Radial Grid Type                 RadialGrid  ... OptM3 with GC (2021)
Angular Grid (max. ang.)         AngularGrid ... 3 (Lebedev-194)
Angular grid pruning method      GridPruning ... 4 (adaptive)
Weight generation scheme         WeightScheme... mBecke (2022)
Basis function cutoff            BFCut       ... 1.0000e-11
Integration weight cutoff        WCut        ... 1.0000e-14
Partially contracted basis set               ... on
Rotationally invariant grid construction     ... off
Angular grids for H and He will be reduced by one unit

Total number of grid points                  ...    57040
Total number of batches                      ...      454
Average number of points per batch           ...      125
Average number of grid points per atom       ...     3002
UseSFitting                                  ... on
Initializing property integral containers    ... done (  0.0 sec)

SHARK setup successfully completed in   1.0 seconds

Maximum memory used throughout the entire STARTUP-calculation: 23.5 MB


           ************************************************************
           *        Program running with 40 parallel MPI-processes    *
           *              working on a common directory               *
           ************************************************************
-------------------------------------------------------------------------------
                                 ORCA GUESS
                   Start orbitals & Density for SCF / CASSCF
-------------------------------------------------------------------------------

------------
SCF SETTINGS
------------
Hamiltonian:
 Density Functional     Method          .... DFT(GTOs)
 Exchange Functional    Exchange        .... B88
   X-Alpha parameter    XAlpha          ....  0.666667
   Becke's b parameter  XBeta           ....  0.004200
 Correlation Functional Correlation     .... LYP
 LDA part of GGA corr.  LDAOpt          .... VWN-5
 Gradients option       PostSCFGGA      .... off
 Hybrid DFT is turned on
   Fraction HF Exchange ScalHFX         ....  0.200000
   Scaling of DF-GGA-X  ScalDFX         ....  0.720000
   Scaling of DF-GGA-C  ScalDFC         ....  0.810000
   Scaling of DF-LDA-C  ScalLDAC        ....  1.000000
   Perturbative correction              ....  0.000000
   NL short-range parameter             ....  4.800000
 RI-approximation to the Coulomb term is turned on
   Number of AuxJ basis functions       .... 627
   RIJ-COSX (HFX calculated with COS-X)).... on


General Settings:
 Integral files         IntName         .... 4nitroaniline_water_2_OPT
 Hartree-Fock type      HFTyp           .... RHF
 Total Charge           Charge          ....    0
 Multiplicity           Mult            ....    1
 Number of Electrons    NEL             ....   82
 Basis Dimension        Dim             ....  194
 Nuclear Repulsion      ENuc            ....    586.2391973421 Eh

Convergence Acceleration:
 AO-DIIS                CNVDIIS         .... on
   Start iteration      DIISMaxIt       ....    12
   Startup error        DIISStart       ....  0.200000
   # of expansion vecs  DIISMaxEq       ....     5
   Bias factor          DIISBfac        ....   1.050
   Max. coefficient     DIISMaxC        ....  10.000
 MO-DIIS                CNVKDIIS        .... off
 Trust-Rad. Augm. Hess. CNVTRAH         .... auto
   Auto Start mean grad. ratio tolernc. ....  1.125000
   Auto Start start iteration           ....    50
   Auto Start num. interpolation iter.  ....    10
   Max. Number of Micro iterations      ....    24
   Max. Number of Macro iterations      .... Maxiter - #DIIS iter
   Number of Davidson start vectors     ....     2
   Converg. threshold    (grad. norm)   ....   1.000e-05
   Grad. Scal. Fac. for Micro threshold ....   0.100
   Minimum threshold for Micro iter.    ....   1.000e-02
   NR start threshold (gradient norm)   ....   1.000e-04
   Initial trust radius                 ....   0.400
   Minimum AH scaling param. (alpha)    ....   1.000
   Maximum AH scaling param. (alpha)    .... 1000.000
   Quad. conv. algorithm                .... NR
   White noise on init. David. guess    .... on
   Maximum white noise                  ....   0.010
   Pseudo random numbers                .... off
   Inactive MOs                         .... canonical
   Orbital update algorithm             .... Taylor
   Preconditioner                       .... Diag
   Full preconditioner red. dimension   ....   250
 SOSCF                  CNVSOSCF        .... on
   Start iteration      SOSCFMaxIt      ....   150
   Startup grad/error   SOSCFStart      ....  0.003300
   Hessian update       SOSCFHessUp     .... L-BFGS
 Level Shifting         CNVShift        .... on
   Level shift para.    LevelShift      ....    0.2500
   Turn off err/grad.   ShiftErr        ....    0.0010
 Zerner damping         CNVZerner       .... off
 Static damping         CNVDamp         .... on
   Fraction old density DampFac         ....    0.7000
   Max. Damping (<1)    DampMax         ....    0.9800
   Min. Damping (>=0)   DampMin         ....    0.0000
   Turn off err/grad.   DampErr         ....    0.1000

SCF Procedure:
 Maximum # iterations   MaxIter         ....   125
 SCF integral mode      SCFMode         .... Direct
   Integral package                     .... SHARK and LIBINT hybrid scheme
 Reset frequency        DirectResetFreq ....    20
 Integral Threshold     Thresh          ....  2.500e-11 Eh
 Primitive CutOff       TCut            ....  2.500e-12 Eh

Convergence Tolerance:
 Convergence Check Mode ConvCheckMode   .... Total+1el-Energy
 Convergence forced     ConvForced      .... 0
 Energy Change          TolE            ....  1.000e-08 Eh
 1-El. energy change                    ....  1.000e-05 Eh
 Orbital Gradient       TolG            ....  1.000e-05
 Orbital Rotation angle TolX            ....  1.000e-05
 DIIS Error             TolErr          ....  5.000e-07

------------------------------
INITIAL GUESS: MODEL POTENTIAL
------------------------------
Loading Hartree-Fock densities                     ... done
Calculating cut-offs                               ... done
Initializing the effective Hamiltonian             ... done
Setting up the integral package (SHARK)            ... done
Starting the Coulomb interaction                   ... done (   0.0 sec)
Making the grid                                    ... done (   0.2 sec)
Mapping shells                                     ... done
Starting the XC term evaluation                    ... done (   0.0 sec)
  promolecular density results
     # of electrons  =     81.998286125
     EX              =    -70.968131901
     EC              =     -2.833468285
     EX+EC           =    -73.801600186
Transforming the Hamiltonian                       ... done (   0.0 sec)
Diagonalizing the Hamiltonian                      ... done (   0.0 sec)
Back transforming the eigenvectors                 ... done (   0.0 sec)
Now organizing SCF variables                       ... done
                      ------------------
                      INITIAL GUESS DONE (   0.2 sec)
                      ------------------
             **** ENERGY FILE WAS UPDATED (4nitroaniline_water_2_OPT.en.tmp) ****
Finished Guess after   1.4 sec
Maximum memory used throughout the entire GUESS-calculation: 13.4 MB


           ************************************************************
           *        Program running with 40 parallel MPI-processes    *
           *              working on a common directory               *
           ************************************************************

-------------------------------------------------------------------------------------------
                                      ORCA LEAN-SCF
                              memory conserving SCF solver
-------------------------------------------------------------------------------------------

----------------------------------------D-I-I-S--------------------------------------------
Iteration    Energy (Eh)           Delta-E    RMSDP     MaxDP     DIISErr   Damp  Time(sec)
-------------------------------------------------------------------------------------------
               ***  Starting incremental Fock matrix formation  ***
    1    -567.4300853011781101     0.00e+00  4.12e-03  8.86e-02  3.11e-01  0.700   0.3
    2    -567.6117480237495556    -1.82e-01  2.57e-03  5.10e-02  1.30e-01  0.700   0.2
                               ***Turning on AO-DIIS***
    3    -567.6755144838119804    -6.38e-02  1.12e-03  1.65e-02  3.69e-02  0.700   0.2
    4    -567.7161295486858990    -4.06e-02  1.97e-03  3.02e-02  1.63e-02  0.000   0.2
    5    -567.8072403094316769    -9.11e-02  3.54e-04  7.63e-03  5.28e-03  0.000   0.2
                              *** Initializing SOSCF ***
---------------------------------------S-O-S-C-F--------------------------------------
Iteration    Energy (Eh)           Delta-E    RMSDP     MaxDP     MaxGrad    Time(sec)
--------------------------------------------------------------------------------------
    6    -567.8077251903588376    -4.85e-04  1.18e-04  3.16e-03  1.37e-03     0.2
               *** Restarting incremental Fock matrix formation ***
    7    -567.8078358540204817    -1.11e-04  8.29e-05  1.75e-03  3.87e-04     0.3
    8    -567.8078346943312908     1.16e-06  3.53e-05  6.56e-04  6.18e-04     0.2
    9    -567.8078410015699546    -6.31e-06  1.75e-05  2.86e-04  1.00e-04     0.2
   10    -567.8078409246337515     7.69e-08  7.92e-06  2.15e-04  1.51e-04     0.2
   11    -567.8078412955545673    -3.71e-07  5.35e-06  1.44e-04  4.99e-05     0.2
   12    -567.8078412664070811     2.91e-08  3.48e-06  9.32e-05  7.58e-05     0.2
   13    -567.8078413230240358    -5.66e-08  2.76e-06  8.73e-05  2.83e-05     0.2
   14    -567.8078412952598910     2.78e-08  1.94e-06  5.76e-05  4.25e-05     0.2
   15    -567.8078413288361617    -3.36e-08  3.70e-07  9.31e-06  2.70e-06     0.2
   16    -567.8078413271811087     1.66e-09  2.26e-07  5.23e-06  3.78e-06     0.2
                 **** Energy Check signals convergence ****

               *****************************************************
               *                     SUCCESS                       *
               *           SCF CONVERGED AFTER  16 CYCLES          *
               *****************************************************

Recomputing exchange energy using gridx3       ... done (    0.297 sec)
Old exchange energy                            :    -14.334493045 Eh
New exchange energy                            :    -14.334490780 Eh
Exchange energy change after final integration :      0.000002265 Eh
Total energy after final integration           :   -567.807839062 Eh
             **** ENERGY FILE WAS UPDATED (4nitroaniline_water_2_OPT.en.tmp) ****

----------------
TOTAL SCF ENERGY
----------------

Total Energy       :       -567.80783906244244 Eh          -15450.83681 eV

Components:
Nuclear Repulsion  :        586.23919734211643 Eh           15952.37956 eV
Electronic Energy  :      -1154.04703866929754 Eh          -31403.21643 eV
One Electron Energy:      -1936.35982099995749 Eh          -52691.02949 eV
Two Electron Energy:        782.31278233065996 Eh           21287.81306 eV

Virial components:
Potential Energy   :      -1130.94034191481524 Eh          -30774.45125 eV
Kinetic Energy     :        563.13250285237268 Eh           15323.61444 eV
Virial Ratio       :          2.00830237321836

DFT components:
N(Alpha)           :       40.999980227222 electrons
N(Beta)            :       40.999980227222 electrons
N(Total)           :       81.999960454444 electrons
E(X)               :      -57.080527575775 Eh       
E(C)               :       -3.339992125180 Eh       
E(XC)              :      -60.420519700955 Eh       

---------------
SCF CONVERGENCE
---------------

  Last Energy change         ...   -1.6551e-09  Tolerance :   1.0000e-08
  Last MAX-Density change    ...    5.2344e-06  Tolerance :   1.0000e-07
  Last RMS-Density change    ...    2.2608e-07  Tolerance :   5.0000e-09
  Last DIIS Error            ...    1.3709e-03  Tolerance :   5.0000e-07
  Last Orbital Gradient      ...    3.7768e-06  Tolerance :   1.0000e-05
  Last Orbital Rotation      ...    2.1431e-06  Tolerance :   1.0000e-05


----------------
ORBITAL ENERGIES
----------------

  NO   OCC          E(Eh)            E(eV) 
   0   2.0000     -19.141452      -520.8654 
   1   2.0000     -19.141341      -520.8624 
   2   2.0000     -19.115934      -520.1710 
   3   2.0000     -14.540403      -395.6645 
   4   2.0000     -14.377266      -391.2253 
   5   2.0000     -10.260607      -279.2053 
   6   2.0000     -10.229315      -278.3538 
   7   2.0000     -10.211258      -277.8625 
   8   2.0000     -10.211007      -277.8556 
   9   2.0000     -10.205619      -277.7090 
  10   2.0000     -10.205112      -277.6952 
  11   2.0000      -1.200791       -32.6752 
  12   2.0000      -1.025631       -27.9088 
  13   2.0000      -0.978528       -26.6271 
  14   2.0000      -0.950498       -25.8644 
  15   2.0000      -0.865268       -23.5451 
  16   2.0000      -0.780655       -21.2427 
  17   2.0000      -0.760701       -20.6997 
  18   2.0000      -0.683104       -18.5882 
  19   2.0000      -0.637105       -17.3365 
  20   2.0000      -0.591632       -16.0991 
  21   2.0000      -0.556110       -15.1325 
  22   2.0000      -0.554398       -15.0859 
  23   2.0000      -0.529223       -14.4009 
  24   2.0000      -0.521821       -14.1995 
  25   2.0000      -0.515180       -14.0188 
  26   2.0000      -0.490467       -13.3463 
  27   2.0000      -0.457877       -12.4595 
  28   2.0000      -0.455198       -12.3866 
  29   2.0000      -0.441586       -12.0162 
  30   2.0000      -0.421774       -11.4771 
  31   2.0000      -0.412116       -11.2143 
  32   2.0000      -0.366233        -9.9657 
  33   2.0000      -0.363894        -9.9021 
  34   2.0000      -0.341402        -9.2900 
  35   2.0000      -0.294238        -8.0066 
  36   2.0000      -0.293656        -7.9908 
  37   2.0000      -0.290987        -7.9182 
  38   2.0000      -0.274942        -7.4816 
  39   2.0000      -0.274735        -7.4759 
  40   2.0000      -0.232663        -6.3311 
  41   0.0000      -0.071516        -1.9460 
  42   0.0000      -0.024131        -0.6566 
  43   0.0000       0.013519         0.3679 
  44   0.0000       0.019643         0.5345 
  45   0.0000       0.060394         1.6434 
  46   0.0000       0.064121         1.7448 
  47   0.0000       0.074897         2.0380 
  48   0.0000       0.115000         3.1293 
  49   0.0000       0.133383         3.6295 
  50   0.0000       0.141720         3.8564 
  51   0.0000       0.155080         4.2199 
*Only the first 10 virtual orbitals were printed.

                    ********************************
                    * MULLIKEN POPULATION ANALYSIS *
                    ********************************

-----------------------
MULLIKEN ATOMIC CHARGES
-----------------------
   0 O :   -0.257163
   1 O :   -0.257550
   2 N :    0.237430
   3 N :   -0.065248
   4 C :    0.161441
   5 C :    0.099325
   6 C :   -0.016834
   7 C :   -0.014637
   8 C :   -0.018771
   9 C :   -0.015139
  10 H :    0.004470
  11 H :    0.004539
  12 H :   -0.031499
  13 H :   -0.032002
  14 H :    0.124614
  15 H :    0.129057
  16 O :   -0.293297
  17 H :    0.094934
  18 H :    0.146331
Sum of atomic charges:   -0.0000000

--------------------------------
MULLIKEN REDUCED ORBITAL CHARGES
--------------------------------
  0 O s       :     3.857942  s :     3.857942
      pz      :     1.336397  p :     4.377364
      px      :     1.644056
      py      :     1.396912
      dz2     :     0.004332  d :     0.021857
      dxz     :     0.004244
      dyz     :     0.005212
      dx2y2   :     0.003193
      dxy     :     0.004876

  1 O s       :     3.858246  s :     3.858246
      pz      :     1.407690  p :     4.377473
      px      :     1.701183
      py      :     1.268600
      dz2     :     0.003556  d :     0.021831
      dxz     :     0.003004
      dyz     :     0.005767
      dx2y2   :     0.004620
      dxy     :     0.004885

  2 N s       :     3.291807  s :     3.291807
      pz      :     1.127624  p :     3.355816
      px      :     1.136361
      py      :     1.091831
      dz2     :     0.022777  d :     0.114948
      dxz     :     0.017178
      dyz     :     0.020004
      dx2y2   :     0.031120
      dxy     :     0.023868

  3 N s       :     3.294026  s :     3.294026
      pz      :     1.427387  p :     3.755572
      px      :     1.077013
      py      :     1.251172
      dz2     :     0.001109  d :     0.015650
      dxz     :     0.004086
      dyz     :     0.001987
      dx2y2   :     0.003553
      dxy     :     0.004916

  4 C s       :     2.998414  s :     2.998414
      pz      :     1.017239  p :     2.792274
      px      :     0.820275
      py      :     0.954760
      dz2     :     0.008375  d :     0.047871
      dxz     :     0.007576
      dyz     :     0.006375
      dx2y2   :     0.015964
      dxy     :     0.009581

  5 C s       :     2.971219  s :     2.971219
      pz      :     0.968252  p :     2.866853
      px      :     0.895103
      py      :     1.003498
      dz2     :     0.008587  d :     0.062603
      dxz     :     0.015688
      dyz     :     0.006318
      dx2y2   :     0.016600
      dxy     :     0.015410

  6 C s       :     3.275324  s :     3.275324
      pz      :     0.905160  p :     2.706154
      px      :     0.869976
      py      :     0.931018
      dz2     :     0.003987  d :     0.035356
      dxz     :     0.008885
      dyz     :     0.004486
      dx2y2   :     0.008312
      dxy     :     0.009686

  7 C s       :     3.275633  s :     3.275633
      pz      :     0.928357  p :     2.703655
      px      :     0.886445
      py      :     0.888853
      dz2     :     0.004977  d :     0.035349
      dxz     :     0.008697
      dyz     :     0.004086
      dx2y2   :     0.007185
      dxy     :     0.010404

  8 C s       :     3.220180  s :     3.220180
      pz      :     0.976388  p :     2.766392
      px      :     0.881999
      py      :     0.908005
      dz2     :     0.003828  d :     0.032200
      dxz     :     0.007742
      dyz     :     0.004076
      dx2y2   :     0.007024
      dxy     :     0.009529

  9 C s       :     3.217264  s :     3.217264
      pz      :     0.971030  p :     2.765663
      px      :     0.867955
      py      :     0.926679
      dz2     :     0.003425  d :     0.032211
      dxz     :     0.007733
      dyz     :     0.004184
      dx2y2   :     0.007390
      dxy     :     0.009480

 10 H s       :     0.971873  s :     0.971873
      pz      :     0.007804  p :     0.023657
      px      :     0.008045
      py      :     0.007808

 11 H s       :     0.971786  s :     0.971786
      pz      :     0.006464  p :     0.023676
      px      :     0.007000
      py      :     0.010211

 12 H s       :     1.008420  s :     1.008420
      pz      :     0.007235  p :     0.023079
      px      :     0.005362
      py      :     0.010483

 13 H s       :     1.008817  s :     1.008817
      pz      :     0.008433  p :     0.023185
      px      :     0.006398
      py      :     0.008354

 14 H s       :     0.829450  s :     0.829450
      pz      :     0.015482  p :     0.045936
      px      :     0.011121
      py      :     0.019333

 15 H s       :     0.826116  s :     0.826116
      pz      :     0.016951  p :     0.044827
      px      :     0.011916
      py      :     0.015960

 16 O s       :     3.678944  s :     3.678944
      pz      :     1.448082  p :     4.603653
      px      :     1.483573
      py      :     1.671997
      dz2     :     0.001146  d :     0.010699
      dxz     :     0.003833
      dyz     :     0.000926
      dx2y2   :     0.001707
      dxy     :     0.003087

 17 H s       :     0.831350  s :     0.831350
      pz      :     0.030858  p :     0.073716
      px      :     0.018004
      py      :     0.024854

 18 H s       :     0.783286  s :     0.783286
      pz      :     0.021713  p :     0.070384
      px      :     0.026054
      py      :     0.022617



                     *******************************
                     * LOEWDIN POPULATION ANALYSIS *
                     *******************************

----------------------
LOEWDIN ATOMIC CHARGES
----------------------
   0 O :   -0.222244
   1 O :   -0.222604
   2 N :    0.278258
   3 N :    0.017690
   4 C :   -0.057300
   5 C :    0.046756
   6 C :    0.012128
   7 C :    0.011578
   8 C :   -0.056950
   9 C :   -0.054555
  10 H :    0.041518
  11 H :    0.041574
  12 H :    0.026808
  13 H :    0.026243
  14 H :    0.075815
  15 H :    0.083510
  16 O :   -0.155177
  17 H :    0.033345
  18 H :    0.073606

-------------------------------
LOEWDIN REDUCED ORBITAL CHARGES
-------------------------------
  0 O s       :     3.621983  s :     3.621983
      pz      :     1.402407  p :     4.558309
      px      :     1.687357
      py      :     1.468544
      dz2     :     0.006069  d :     0.041952
      dxz     :     0.008964
      dyz     :     0.011801
      dx2y2   :     0.004878
      dxy     :     0.010240

  1 O s       :     3.622287  s :     3.622287
      pz      :     1.455862  p :     4.558418
      px      :     1.730119
      py      :     1.372436
      dz2     :     0.005268  d :     0.041899
      dxz     :     0.005684
      dyz     :     0.012698
      dx2y2   :     0.007693
      dxy     :     0.010556

  2 N s       :     3.049438  s :     3.049438
      pz      :     1.127875  p :     3.431282
      px      :     1.176904
      py      :     1.126503
      dz2     :     0.041180  d :     0.241022
      dxz     :     0.035923
      dyz     :     0.047406
      dx2y2   :     0.064904
      dxy     :     0.051609

  3 N s       :     3.018441  s :     3.018441
      pz      :     1.442110  p :     3.921339
      px      :     1.161265
      py      :     1.317964
      dz2     :     0.002750  d :     0.042529
      dxz     :     0.010699
      dyz     :     0.004546
      dx2y2   :     0.010392
      dxy     :     0.014142

  4 C s       :     2.857083  s :     2.857083
      pz      :     1.087775  p :     3.077889
      px      :     0.903553
      py      :     1.086561
      dz2     :     0.018803  d :     0.122327
      dxz     :     0.019635
      dyz     :     0.016859
      dx2y2   :     0.040599
      dxy     :     0.026432

  5 C s       :     2.836595  s :     2.836595
      pz      :     0.980972  p :     2.967773
      px      :     0.960264
      py      :     1.026537
      dz2     :     0.018793  d :     0.148877
      dxz     :     0.036044
      dyz     :     0.015740
      dx2y2   :     0.040987
      dxy     :     0.037313

  6 C s       :     2.862301  s :     2.862301
      pz      :     0.971699  p :     3.033932
      px      :     1.059066
      py      :     1.003168
      dz2     :     0.009301  d :     0.091639
      dxz     :     0.021744
      dyz     :     0.011316
      dx2y2   :     0.023230
      dxy     :     0.026048

  7 C s       :     2.862105  s :     2.862105
      pz      :     0.971429  p :     3.034616
      px      :     1.059394
      py      :     1.003793
      dz2     :     0.011498  d :     0.091702
      dxz     :     0.021994
      dyz     :     0.010311
      dx2y2   :     0.020782
      dxy     :     0.027118

  8 C s       :     2.857051  s :     2.857051
      pz      :     1.034542  p :     3.113857
      px      :     1.050668
      py      :     1.028647
      dz2     :     0.008845  d :     0.086041
      dxz     :     0.020236
      dyz     :     0.010435
      dx2y2   :     0.020788
      dxy     :     0.025737

  9 C s       :     2.856888  s :     2.856888
      pz      :     1.032799  p :     3.111558
      px      :     1.050936
      py      :     1.027824
      dz2     :     0.008077  d :     0.086109
      dxz     :     0.019633
      dyz     :     0.010705
      dx2y2   :     0.021348
      dxy     :     0.026346

 10 H s       :     0.887202  s :     0.887202
      pz      :     0.023417  p :     0.071280
      px      :     0.024134
      py      :     0.023729

 11 H s       :     0.887101  s :     0.887101
      pz      :     0.019641  p :     0.071325
      px      :     0.021238
      py      :     0.030446

 12 H s       :     0.905155  s :     0.905155
      pz      :     0.021627  p :     0.068037
      px      :     0.015983
      py      :     0.030426

 13 H s       :     0.905386  s :     0.905386
      pz      :     0.024791  p :     0.068370
      px      :     0.018815
      py      :     0.024765

 14 H s       :     0.798116  s :     0.798116
      pz      :     0.045244  p :     0.126069
      px      :     0.027198
      py      :     0.053628

 15 H s       :     0.794382  s :     0.794382
      pz      :     0.048230  p :     0.122108
      px      :     0.029260
      py      :     0.044617

 16 O s       :     3.434612  s :     3.434612
      pz      :     1.483580  p :     4.700738
      px      :     1.558531
      py      :     1.658627
      dz2     :     0.002129  d :     0.019827
      dxz     :     0.006965
      dyz     :     0.003378
      dx2y2   :     0.002056
      dxy     :     0.005299

 17 H s       :     0.772330  s :     0.772330
      pz      :     0.081713  p :     0.194326
      px      :     0.048156
      py      :     0.064457

 18 H s       :     0.751024  s :     0.751024
      pz      :     0.046382  p :     0.175370
      px      :     0.073858
      py      :     0.055130



                      *****************************
                      * MAYER POPULATION ANALYSIS *
                      *****************************

  NA   - Mulliken gross atomic population
  ZA   - Total nuclear charge
  QA   - Mulliken gross atomic charge
  VA   - Mayer's total valence
  BVA  - Mayer's bonded valence
  FA   - Mayer's free valence

  ATOM       NA         ZA         QA         VA         BVA        FA
  0 O      8.2572     8.0000    -0.2572     1.9484     1.9484    -0.0000
  1 O      8.2576     8.0000    -0.2576     1.9479     1.9479     0.0000
  2 N      6.7626     7.0000     0.2374     3.9830     3.9830    -0.0000
  3 N      7.0652     7.0000    -0.0652     3.2688     3.2688    -0.0000
  4 C      5.8386     6.0000     0.1614     3.7625     3.7625    -0.0000
  5 C      5.9007     6.0000     0.0993     4.0162     4.0162    -0.0000
  6 C      6.0168     6.0000    -0.0168     3.8636     3.8636     0.0000
  7 C      6.0146     6.0000    -0.0146     3.8590     3.8590    -0.0000
  8 C      6.0188     6.0000    -0.0188     3.7606     3.7606    -0.0000
  9 C      6.0151     6.0000    -0.0151     3.7622     3.7622    -0.0000
 10 H      0.9955     1.0000     0.0045     1.0189     1.0189    -0.0000
 11 H      0.9955     1.0000     0.0045     1.0191     1.0191    -0.0000
 12 H      1.0315     1.0000    -0.0315     0.9886     0.9886    -0.0000
 13 H      1.0320     1.0000    -0.0320     0.9886     0.9886    -0.0000
 14 H      0.8754     1.0000     0.1246     1.0010     1.0010    -0.0000
 15 H      0.8709     1.0000     0.1291     1.0011     1.0011    -0.0000
 16 O      8.2933     8.0000    -0.2933     2.0032     2.0032    -0.0000
 17 H      0.9051     1.0000     0.0949     1.0945     1.0945    -0.0000
 18 H      0.8537     1.0000     0.1463     1.0131     1.0131    -0.0000

  Mayer bond orders larger than 0.100000
B(  0-O ,  1-O ) :   0.2671 B(  0-O ,  2-N ) :   1.5312 B(  1-O ,  2-N ) :   1.5304 
B(  2-N ,  4-C ) :   0.8913 B(  3-N ,  5-C ) :   1.2464 B(  3-N , 14-H ) :   0.9375 
B(  3-N , 15-H ) :   0.9373 B(  4-C ,  6-C ) :   1.3483 B(  4-C ,  7-C ) :   1.3449 
B(  5-C ,  8-C ) :   1.2880 B(  5-C ,  9-C ) :   1.2894 B(  6-C ,  8-C ) :   1.3931 
B(  6-C , 10-H ) :   0.9799 B(  7-C ,  9-C ) :   1.3947 B(  7-C , 11-H ) :   0.9804 
B(  8-C , 12-H ) :   0.9840 B(  9-C , 13-H ) :   0.9833 B( 16-O , 17-H ) :   0.9739 
B( 16-O , 18-H ) :   1.0031 

-------
TIMINGS
-------

Total SCF time: 0 days 0 hours 0 min 5 sec 

Total time                  ....       5.095 sec
Sum of individual times     ....       5.053 sec  ( 99.2%)

SCF preparation             ....       1.320 sec  ( 25.9%)
Fock matrix formation       ....       3.371 sec  ( 66.2%)
  Startup                   ....       0.023 sec  (  0.7% of F)
  Split-RI-J                ....       0.385 sec  ( 11.4% of F)
  Chain of spheres X        ....       2.125 sec  ( 63.0% of F)
  XC integration            ....       0.748 sec  ( 22.2% of F)
    XC Preparation          ....       0.000 sec  (  0.0% of XC)
    Basis function eval.    ....       0.155 sec  ( 20.7% of XC)
    Density eval.           ....       0.068 sec  (  9.1% of XC)
    XC-Functional eval.     ....       0.038 sec  (  5.1% of XC)
    XC-Potential eval.      ....       0.084 sec  ( 11.3% of XC)
Diagonalization             ....       0.000 sec  (  0.0%)
Density matrix formation    ....       0.042 sec  (  0.8%)
Total Energy calculation    ....       0.039 sec  (  0.8%)
Population analysis         ....       0.019 sec  (  0.4%)
Orbital Transformation      ....       0.026 sec  (  0.5%)
Orbital Orthonormalization  ....       0.000 sec  (  0.0%)
DIIS solution               ....       0.130 sec  (  2.6%)
SOSCF solution              ....       0.105 sec  (  2.1%)
Finished LeanSCF after   5.1 sec

Maximum memory used throughout the entire LEANSCF-calculation: 19.9 MB


-------------------------------------------------------------------------------
                          DFT DISPERSION CORRECTION                            
                                                                               
                              DFTD3 V3.1  Rev 1                                
                          USING Becke-Johnson damping                          
-------------------------------------------------------------------------------
The B3LYP functional is recognized
Active option DFTDOPT                   ...         4   

molecular C6(AA) [au] = 3866.388612 


            DFT-D V3
 parameters
 s6 scaling factor         :     1.0000 
 a1 scaling factor         :     0.3981 
 s8 scaling factor         :     1.9889 
 a2 scaling factor         :     4.4211 
 ad hoc parameters k1-k3   :    16.0000     1.3333    -4.0000 

 Edisp/kcal,au: -20.087618038190  -0.032011653570 
 E6   /kcal   :  -9.504626442 
 E8   /kcal   : -10.582991597 
 % E8         :  52.684153873 

-------------------------   ----------------
Dispersion correction           -0.032011654
-------------------------   ----------------


-------------------------   --------------------
FINAL SINGLE POINT ENERGY      -567.839850716012
-------------------------   --------------------



           ************************************************************
           *        Program running with 40 parallel MPI-processes    *
           *              working on a common directory               *
           ************************************************************
------------------------------------------------------------------------------
                         ORCA SCF GRADIENT CALCULATION
------------------------------------------------------------------------------

Nuc. rep. gradient        (SHARK) ... done (  0.0 sec)
HCore & Overlap gradient  (SHARK) ... done (  0.0 sec)
Split-RIJ-J gradient      (SHARK) ... done (  0.2 sec)
COSX-gradient                     ... done (  0.9 sec)
XC gradient                       ... done (  0.2 sec)
Dispersion correction             ... done (  0.1 sec)

-------------------
DISPERSION GRADIENT
-------------------

   1   O   :    0.000479922    0.000073375    0.000154054
   2   O   :    0.000462943   -0.000202265   -0.000061350
   3   N   :    0.000585171   -0.000080425    0.000058051
   4   N   :   -0.000583588   -0.000048735    0.000083308
   5   C   :    0.000445196   -0.000067663    0.000051848
   6   C   :   -0.000370668   -0.000084747    0.000120401
   7   C   :    0.000143002    0.000418261    0.000381881
   8   C   :    0.000090955   -0.000477533   -0.000323969
   9   C   :   -0.000079791    0.000395142    0.000442956
  10   C   :   -0.000147008   -0.000507820   -0.000284244
  11   H   :    0.000107491    0.000257686    0.000223927
  12   H   :    0.000076222   -0.000285155   -0.000202482
  13   H   :   -0.000066547    0.000276947    0.000249075
  14   H   :   -0.000110045   -0.000290510   -0.000207309
  15   H   :   -0.000289623    0.000056713    0.000115834
  16   H   :   -0.000294772   -0.000117227   -0.000020031
  17   O   :   -0.000179051    0.000380394   -0.000447163
  18   H   :   -0.000213982    0.000185312   -0.000197962
  19   H   :   -0.000055826    0.000118250   -0.000136825

Difference to translation invariance:
           :    0.0000000000    0.0000000000   -0.0000000000

Difference to rotation invariance:
           :   -0.0000000000   -0.0000000000   -0.0000000000

Norm of the Dispersion gradient    ...    0.0020637080
RMS gradient                       ...    0.0002733448
MAX gradient                       ...    0.0005851709

------------------
CARTESIAN GRADIENT
------------------

   1   O   :    0.001641034    0.000649221    0.000735474
   2   O   :    0.001631786   -0.001324493   -0.000793213
   3   N   :   -0.005000654    0.000888983   -0.000175277
   4   N   :    0.014360430    0.002382616    0.003819984
   5   C   :    0.004788209   -0.000749116    0.000376148
   6   C   :   -0.020700302    0.003815834    0.000191402
   7   C   :   -0.002250473    0.001195673    0.000584353
   8   C   :   -0.002244860    0.000102321   -0.000309620
   9   C   :    0.005712037    0.001755478    0.001999872
  10   C   :    0.005115861   -0.005382676   -0.003680918
  11   H   :    0.000163919   -0.000070602    0.000049630
  12   H   :    0.000159175   -0.000033426    0.000080356
  13   H   :   -0.000248286   -0.000207944    0.000127486
  14   H   :   -0.000886867    0.001800391    0.001542864
  15   H   :    0.002353268    0.002517665   -0.002777071
  16   H   :   -0.002425786   -0.004775042   -0.006490984
  17   O   :    0.002196782   -0.003114535    0.003024441
  18   H   :   -0.003105726    0.000248065    0.001935442
  19   H   :   -0.001259548    0.000301586   -0.000240369

Difference to translation invariance:
           :    0.0000000002   -0.0000000000   -0.0000000000

Difference to rotation invariance:
           :   -0.0000386923   -0.0001241472    0.0001199829

Norm of the Cartesian gradient     ...    0.0313687634
RMS gradient                       ...    0.0041548942
MAX gradient                       ...    0.0207003020

-------
TIMINGS
-------

Total SCF gradient time     ....        1.335 sec

Densities                   ....       0.001 sec  (  0.1%)
One electron gradient       ....       0.024 sec  (  1.8%)
RI-J Coulomb gradient       ....       0.175 sec  ( 13.1%)
COSX gradient               ....       0.872 sec  ( 65.4%)
XC gradient                 ....       0.198 sec  ( 14.8%)

Maximum memory used throughout the entire SCFGRAD-calculation: 30.5 MB
------------------------------------------------------------------------------
                         ORCA GEOMETRY RELAXATION STEP
------------------------------------------------------------------------------

Reading the OPT-File                    .... done
Getting information on internals        .... done
Copying old internal coords+grads       .... done
Making the new internal coordinates     .... (2022 redundants) done
Validating the new internal coordinates .... (2022 redundants) done
Calculating the B-matrix                .... done
Calculating the G,G- and P matrices     .... done
Transforming gradient to internals      .... done
Projecting the internal gradient        .... done
Number of atoms                         ....  19
Number of internal coordinates          .... 107
Current Energy                          ....  -567.839850716 Eh
Current gradient norm                   ....     0.031368763 Eh/bohr
Maximum allowed component of the step   ....  0.300
Current trust radius                    ....  0.300
Evaluating the initial hessian          ....  (Almloef) done
Projecting the Hessian                  .... done
Forming the augmented Hessian           .... done
Diagonalizing the augmented Hessian     .... done
Last element of RFO vector              ....  0.969808384
Lowest eigenvalues of augmented Hessian:
 -0.001463648  0.011541879  0.015172556  0.015174405  0.018166927
Length of the computed step             ....  0.251460187
The final length of the internal step   ....  0.251460187
Converting the step to Cartesian space:
 Initial RMS(Int)=    0.0243095738
Transforming coordinates:
 Iter   0:  RMS(Cart)=    0.0319573900 RMS(Int)=    1.6062560876
done
Storing new coordinates                 .... done

                                .--------------------.
          ----------------------|Geometry convergence|-------------------------
          Item                value                   Tolerance       Converged
          ---------------------------------------------------------------------
          RMS gradient        0.0017728267            0.0001000000      NO
          MAX gradient        0.0121876619            0.0003000000      NO
          RMS step            0.0243095738            0.0020000000      NO
          MAX step            0.1473323580            0.0040000000      NO
          ........................................................
          Max(Bonds)      0.0780      Max(Angles)    1.87
          Max(Dihed)        0.71      Max(Improp)    0.00
          ---------------------------------------------------------------------

The optimization has not yet converged - more geometry cycles are needed


    ---------------------------------------------------------------------------
                         Redundant Internal Coordinates
                            (Angstroem and degrees)

        Definition                    Value    dE/dq     Step     New-Value
    ----------------------------------------------------------------------------
     1. B(N   2,O   0)                1.2255  0.001667 -0.0010    1.2245   
     2. B(N   2,O   1)                1.2259  0.002087 -0.0012    1.2247   
     3. B(C   4,N   2)                1.4561 -0.001755  0.0021    1.4582   
     4. B(C   5,N   3)                1.3577 -0.012188  0.0102    1.3679   
     5. B(C   6,C   4)                1.3997  0.001843 -0.0016    1.3981   
     6. B(C   7,C   4)                1.4000  0.001574 -0.0013    1.3987   
     7. B(C   8,C   5)                1.4183  0.004897 -0.0046    1.4136   
     8. B(C   8,C   6)                1.3855 -0.000497  0.0004    1.3859   
     9. B(C   9,C   7)                1.3842 -0.000635  0.0005    1.3847   
    10. B(C   9,C   5)                1.4203  0.004652 -0.0044    1.4158   
    11. B(H  10,C   6)                1.0897  0.000077 -0.0001    1.0896   
    12. B(H  11,C   7)                1.0897  0.000063 -0.0001    1.0896   
    13. B(H  12,C   8)                1.0932  0.000018 -0.0000    1.0931   
    14. B(H  13,C   9)                1.0909 -0.001504  0.0022    1.0931   
    15. B(H  14,N   3)                1.0096  0.000519  0.0032    1.0128   
    16. B(H  15,N   3)                1.0190  0.006310 -0.0071    1.0120   
    17. B(H  17,H  15)                2.1978 -0.000029  0.0648    2.2626   
    18. B(H  17,H  14)                2.0390 -0.002535  0.0780    2.1170   
    19. B(H  17,N   3)                2.0315 -0.001887  0.0768    2.1083   
    20. B(H  17,O  16)                0.9676 -0.003167  0.0033    0.9709   
    21. B(H  18,O  16)                0.9676  0.001222 -0.0013    0.9663   
    22. A(O   0,N   2,C   4)          117.91  0.000795   -0.10    117.81   
    23. A(O   0,N   2,O   1)          124.22 -0.001360    0.17    124.39   
    24. A(O   1,N   2,C   4)          117.87  0.000565   -0.07    117.80   
    25. A(H  14,N   3,H  15)          119.52  0.000553   -0.18    119.33   
    26. A(C   5,N   3,H  15)          120.18 -0.000223    0.08    120.27   
    27. A(C   5,N   3,H  14)          120.29 -0.000335    0.10    120.40   
    28. A(H  15,N   3,H  17)           85.36 -0.000456   -0.03     85.32   
    29. A(H  14,N   3,H  17)           76.05 -0.000549    0.57     76.63   
    30. A(C   5,N   3,H  17)          107.81  0.000878   -0.27    107.54   
[...]
           :   -0.0000000000   -0.0000000000    0.0000000000

Norm of the Dispersion gradient    ...    0.0019289258
RMS gradient                       ...    0.0002554925
MAX gradient                       ...    0.0005591607

------------------
CARTESIAN GRADIENT
------------------

   1   O   :   -0.000098038    0.000122337   -0.000251473
   2   O   :   -0.000054460    0.000150943   -0.000007492
   3   N   :    0.000331626   -0.000428588    0.000366777
   4   N   :   -0.001214671    0.000060328   -0.000348162
   5   C   :   -0.000618344    0.000288754   -0.000156293
   6   C   :    0.000369623   -0.000398220   -0.000455489
   7   C   :    0.000163072   -0.000038489    0.000086361
   8   C   :    0.000808611   -0.000366784   -0.000330421
   9   C   :    0.000062447   -0.000118088    0.000230170
  10   C   :   -0.001417045    0.000854953    0.000917380
  11   H   :   -0.000031867   -0.000001439   -0.000054284
  12   H   :   -0.000151884    0.000042357   -0.000098244
  13   H   :   -0.000058875   -0.000001959   -0.000111879
  14   H   :    0.000745089   -0.000358507   -0.000319181
  15   H   :   -0.000219359    0.000590087    0.000613266
  16   H   :    0.001523031   -0.000373534   -0.000406728
  17   O   :    0.000837496   -0.000342218   -0.000306048
  18   H   :   -0.000759606   -0.000094466    0.000594817
  19   H   :   -0.000216846    0.000412534    0.000036924

Difference to translation invariance:
           :    0.0000000001    0.0000000000    0.0000000000

Difference to rotation invariance:
           :   -0.0000758422   -0.0003350332    0.0000208497

Norm of the Cartesian gradient     ...    0.0037452475
RMS gradient                       ...    0.0004960701
MAX gradient                       ...    0.0015230305

-------
TIMINGS
-------

Total SCF gradient time     ....        1.262 sec

Densities                   ....       0.001 sec  (  0.1%)
One electron gradient       ....       0.023 sec  (  1.8%)
RI-J Coulomb gradient       ....       0.162 sec  ( 12.8%)
COSX gradient               ....       0.810 sec  ( 64.2%)
XC gradient                 ....       0.202 sec  ( 16.0%)

Maximum memory used throughout the entire SCFGRAD-calculation: 30.4 MB
------------------------------------------------------------------------------
                         ORCA GEOMETRY RELAXATION STEP
------------------------------------------------------------------------------

Reading the OPT-File                    .... done
Getting information on internals        .... done
Copying old internal coords+grads       .... done
Making the new internal coordinates     .... (2022 redundants) done
Validating the new internal coordinates .... (2022 redundants) done
Calculating the B-matrix                .... done
Calculating the G,G- and P matrices     .... done
Transforming gradient to internals      .... done
Projecting the internal gradient        .... done
Number of atoms                         ....  19
Number of internal coordinates          .... 107
Current Energy                          ....  -567.855813748 Eh
Current gradient norm                   ....     0.003745247 Eh/bohr
Maximum allowed component of the step   ....  0.300
Current trust radius                    ....  0.700
Updating the Hessian (BFGS)             .... done
Forming the augmented Hessian           .... done
Diagonalizing the augmented Hessian     .... done
Last element of RFO vector              ....  0.874941517
Lowest eigenvalues of augmented Hessian:
 -0.000038254  0.000021589  0.000592110  0.001684116  0.003938783
Length of the computed step             ....  0.553441112
The final length of the internal step   ....  0.531961768
Converting the step to Cartesian space:
 Initial RMS(Int)=    0.0514266852
Transforming coordinates:
 Iter   0:  RMS(Cart)=    0.0116507907 RMS(Int)=    0.6075539691
done
Storing new coordinates                 .... done
The predicted energy change is          ....     0.001024410
Previously predicted energy change      ....    -0.000032477
Actually observed energy change         ....    -0.000032873
Ratio of predicted to observed change   ....     1.012199971
New trust radius                        ....     0.700000000

                                .--------------------.
          ----------------------|Geometry convergence|-------------------------
          Item                value                   Tolerance       Converged
          ---------------------------------------------------------------------
          Energy change      -0.0000328728            0.0000050000      NO
          RMS gradient        0.0001913457            0.0001000000      NO
          MAX gradient        0.0009804899            0.0003000000      NO
          RMS step            0.0514266852            0.0020000000      NO
          MAX step            0.3000000000            0.0040000000      NO
          ........................................................
          Max(Bonds)      0.0271      Max(Angles)    8.78
          Max(Dihed)       17.19      Max(Improp)    0.00
          ---------------------------------------------------------------------

The optimization has not yet converged - more geometry cycles are needed


    ---------------------------------------------------------------------------
                         Redundant Internal Coordinates
                            (Angstroem and degrees)

        Definition                    Value    dE/dq     Step     New-Value
    ----------------------------------------------------------------------------
     1. B(N   2,O   0)                1.2254 -0.000266  0.0002    1.2256   
     2. B(N   2,O   1)                1.2259 -0.000067  0.0001    1.2259   
     3. B(C   4,N   2)                1.4566  0.000229 -0.0006    1.4560   
     4. B(C   5,N   3)                1.3581  0.000123 -0.0003    1.3578   
     5. B(C   6,C   4)                1.3996 -0.000030  0.0001    1.3997   
     6. B(C   7,C   4)                1.4000 -0.000163  0.0003    1.4003   
     7. B(C   8,C   5)                1.4184  0.000098 -0.0001    1.4183   
     8. B(C   8,C   6)                1.3855  0.000016 -0.0001    1.3854   
     9. B(C   9,C   7)                1.3850  0.000364 -0.0005    1.3844   
    10. B(C   9,C   5)                1.4195 -0.000377  0.0006    1.4201   
    11. B(H  10,C   6)                1.0896 -0.000063  0.0001    1.0897   
    12. B(H  11,C   7)                1.0896 -0.000009  0.0000    1.0897   
    13. B(H  12,C   8)                1.0931 -0.000065  0.0000    1.0931   
    14. B(H  13,C   9)                1.0915 -0.000072  0.0003    1.0917   
    15. B(H  14,N   3)                1.0103  0.000423  0.0073    1.0176   
    16. B(H  15,N   3)                1.0183 -0.000197 -0.0211    0.9972   
    17. B(H  17,H  15)                2.5557 -0.000196 -0.0003    2.5554   
    18. B(H  17,H  14)                4.2374  0.000184  0.0161    4.2534   
    19. B(H  17,N   3)                3.5225 -0.000300  0.0271    3.5497   
    20. B(H  17,O  16)                0.9665 -0.000370  0.0004    0.9669   
    21. B(H  18,O  16)                0.9667 -0.000395 -0.0003    0.9664   
    22. A(O   0,N   2,C   4)          117.93  0.000021    0.01    117.94   
    23. A(O   0,N   2,O   1)          124.21  0.000082    0.00    124.22   
    24. A(O   1,N   2,C   4)          117.85 -0.000104    0.02    117.87   
    25. A(H  14,N   3,H  15)          119.89  0.000229   -3.26    116.63   
    26. A(C   5,N   3,H  15)          119.51 -0.000283    1.81    121.33   
    27. A(C   5,N   3,H  14)          120.45  0.000058    1.77    122.22   
    28. A(H  15,N   3,H  17)           15.49 -0.000114   -2.33     13.16   
    29. A(H  14,N   3,H  17)          129.49  0.000126    0.84    130.33   
    30. A(C   5,N   3,H  17)          109.39 -0.000179    0.38    109.77   
    31. A(C   6,C   4,C   7)          120.73  0.000165   -0.06    120.68   
    32. A(N   2,C   4,C   6)          119.64 -0.000101    0.04    119.67   
    33. A(N   2,C   4,C   7)          119.63 -0.000063    0.02    119.65   
    34. A(N   3,C   5,C   8)          121.73 -0.000034    0.08    121.81   
    35. A(C   8,C   5,C   9)          118.15 -0.000013   -0.03    118.12   
    36. A(N   3,C   5,C   9)          120.11  0.000047   -0.04    120.07   
    37. A(C   8,C   6,H  10)          121.46  0.000030   -0.00    121.46   
    38. A(C   4,C   6,H  10)          118.84  0.000023   -0.02    118.83   
    39. A(C   4,C   6,C   8)          119.70 -0.000054    0.02    119.72   
    40. A(C   4,C   7,C   9)          119.62 -0.000227    0.04    119.66   
    41. A(C   9,C   7,H  11)          121.42 -0.000080   -0.00    121.42   
    42. A(C   4,C   7,H  11)          118.96  0.000307   -0.04    118.92   
    43. A(C   6,C   8,H  12)          119.90  0.000116   -0.02    119.88   
    44. A(C   5,C   8,C   6)          120.87 -0.000014    0.02    120.89   
    45. A(C   5,C   8,H  12)          119.23 -0.000102   -0.00    119.23   
    46. A(C   5,C   9,C   7)          120.93  0.000143   -0.00    120.93   
    47. A(C   7,C   9,H  13)          120.33 -0.000980    0.15    120.48   
    48. A(C   5,C   9,H  13)          118.74  0.000837   -0.18    118.56   
    49. A(N   3,H  14,H  17)           39.91 -0.000143   -0.36     39.55   
    50. A(N   3,H  15,H  17)          158.40  0.000164    1.92    160.31   
    51. A(H  17,O  16,H  18)          104.86 -0.000135   -0.01    104.85   
    52. A(H  14,H  17,O  16)           44.06 -0.000046   -8.78     35.28   
    53. A(N   3,H  17,O  16)           44.02 -0.000073    6.76     50.78   
    54. A(H  14,H  17,H  15)            8.81  0.000030   -0.10      8.71   
    55. A(N   3,H  17,H  15)            6.11 -0.000051    0.41      6.52   
    56. A(H  15,H  17,O  16)           38.74 -0.000032    1.34     40.08   
    57. A(N   3,H  17,H  14)           10.60  0.000018   -0.48     10.12   
    58. D(C   7,C   4,N   2,O   0)    179.77 -0.000140    0.07    179.84   
    59. D(C   7,C   4,N   2,O   1)     -0.11  0.000123   -0.03     -0.15   
    60. D(C   6,C   4,N   2,O   0)     -0.24 -0.000137    0.11     -0.13   
    61. D(C   6,C   4,N   2,O   1)    179.88  0.000127    0.01    179.89   
    62. D(C   8,C   5,N   3,H  14)     -1.20  0.000115    0.21     -0.99   
    63. D(C   8,C   5,N   3,H  17)    170.27  0.000150    1.65    171.92   
    64. D(C   9,C   5,N   3,H  15)      3.45  0.000075   -1.09      2.36   
    65. D(C   9,C   5,N   3,H  14)    179.06  0.000132    0.31    179.38   
    66. D(C   8,C   5,N   3,H  15)   -176.81  0.000059   -1.19   -178.00   
    67. D(H  10,C   6,C   4,C   7)    179.98  0.000004    0.04    180.01   
    68. D(C   8,C   6,C   4,C   7)      0.04  0.000003    0.02      0.06   
    69. D(H  10,C   6,C   4,N   2)     -0.02  0.000001   -0.00     -0.02   
    70. D(C   8,C   6,C   4,N   2)   -179.95  0.000000   -0.02   -179.97   
    71. D(C   9,C   7,C   4,C   6)      0.01 -0.000005   -0.00      0.00   
    72. D(C   9,C   7,C   4,N   2)   -180.00 -0.000001    0.03   -179.96   
    73. D(H  11,C   7,C   4,C   6)    179.92 -0.000006   -0.04    179.88   
    74. D(H  11,C   7,C   4,N   2)     -0.08 -0.000003   -0.00     -0.08   
    75. D(H  12,C   8,C   6,H  10)      0.01  0.000003   -0.00      0.01   
    76. D(H  12,C   8,C   6,C   4)    179.94  0.000003    0.02    179.96   
    77. D(C   5,C   8,C   6,H  10)   -179.98  0.000001   -0.00   -179.98   
    78. D(C   5,C   8,C   6,C   4)     -0.05  0.000002    0.02     -0.03   
    79. D(H  12,C   8,C   5,C   9)   -179.99 -0.000008   -0.08   -180.07   
    80. D(H  12,C   8,C   5,N   3)      0.27  0.000008    0.01      0.28   
    81. D(C   6,C   8,C   5,C   9)      0.00 -0.000006   -0.07     -0.07   
    82. D(C   6,C   8,C   5,N   3)   -179.74  0.000010    0.02   -179.72   
    83. D(C   5,C   9,C   7,C   4)     -0.06  0.000000   -0.05     -0.11   
    84. D(H  13,C   9,C   5,C   8)   -179.82  0.000004    0.13   -179.69   
    85. D(H  13,C   9,C   5,N   3)     -0.07 -0.000012    0.03     -0.04   
    86. D(C   7,C   9,C   5,C   8)      0.05  0.000005    0.09      0.14   
    87. D(C   5,C   9,C   7,H  11)   -179.97  0.000001   -0.02   -179.99   
    88. D(C   7,C   9,C   5,N   3)    179.80 -0.000011   -0.01    179.79   
    89. D(H  13,C   9,C   7,H  11)     -0.10  0.000005   -0.03     -0.13   
    90. D(H  13,C   9,C   7,C   4)    179.81  0.000003   -0.07    179.74   
    91. D(H  17,H  14,N   3,H  15)    -14.85  0.000047    3.37    -11.48   
    92. D(H  17,H  14,N   3,C   5)    169.56  0.000012    1.24    170.80   
    93. D(H  17,H  15,N   3,H  14)    132.23 -0.000144    1.51    133.74   
    94. D(H  17,H  15,N   3,C   5)    -52.14 -0.000096    3.47    -48.67   
    95. D(H  15,H  17,O  16,H  18)   -145.67 -0.000102   -9.04   -154.71   
    96. D(H  14,H  17,O  16,H  18)   -156.31 -0.000185   17.19   -139.12   
    97. D(N   3,H  17,O  16,H  18)   -141.03 -0.000142    0.03   -141.00   
    98. D(O  16,H  17,H  15,N   3)    148.09  0.000060    8.14    156.23   
    99. D(H  15,H  17,H  14,N   3)     35.33 -0.000399    0.01     35.35   
   100. D(O  16,H  17,H  14,N   3)     84.28 -0.000164  -13.47     70.81   
   101. D(H  15,H  17,N   3,C   5)    133.25 -0.000182    2.06    135.32   
   102. D(H  14,H  17,N   3,H  15)     56.28  0.000155   -4.46     51.82   
   103. D(H  14,H  17,H  15,N   3)    -88.85 -0.000242   -4.45    -93.30   
   104. D(H  14,H  17,N   3,C   5)   -170.47 -0.000028   -2.40   -172.86   
   105. D(O  16,H  17,N   3,H  15)    -28.43  0.000032    1.56    -26.86   
   106. D(O  16,H  17,N   3,H  14)    -84.71 -0.000122    6.02    -78.68   
   107. D(O  16,H  17,N   3,C   5)    104.83 -0.000150    3.63    108.45   
    ----------------------------------------------------------------------------

Geometry step timings:
Preparation and reading OPT file:      0.002 s (21.014 %)
Internal coordinates            :      0.000 s ( 0.534 %)
B/P matrices and projection     :      0.001 s (15.170 %)
Hessian update/contruction      :      0.001 s ( 6.721 %)
Making the step                 :      0.001 s (12.463 %)
Converting the step to Cartesian:      0.000 s ( 1.283 %)
Storing new data                :      0.000 s ( 0.419 %)
Checking convergence            :      0.000 s ( 0.216 %)
Final printing                  :      0.003 s (42.104 %)
Total time                      :      0.008 s

Time for energy+gradient        :     10.265 s
Time for complete geometry iter :     11.643 s




    ----------------------------------------------------------------------------
                                  WARNING !!!
       The optimization did not converge but reached the maximum number of
       optimization cycles.
       Please check your results very carefully.
    ----------------------------------------------------------------------------



--------------------------------
SUGGESTED CITATIONS FOR THIS RUN
--------------------------------

Below you find a list of papers that are relevant to this ORCA run
We neither can nor want to force you to cite these papers, but we appreciate if you do
You receive ORCA, which is the product of decades of hard work by many enthusiastic individuals, for free
The only thing we kindly ask in return is that you cite our papers,
We deeply appreciate it, if you show your appreciation for ORCA by not just citing the generic ORCA reference.

Please note that relegating all ORCA citations to the supporting information does *not* help us.
SI sections are not indexed - citations you put there will not count into any citation statistics
But we need these citations in order to attract the funding resources that allow us to do what we are doing

Therefore, if you are a happy ORCA user, please consider citing a few of the papers listed below in the main body of your paper

In addition to the list printed below, the program has created the file 4nitroaniline_water_2_OPT.bibtex that contains the list in bibtex format
You can import this file easily into all common literature databanks and citation aid programs


List of essential papers. We consider these as the minimum necessary citations

  1. Neese,F.
     Software update: the ORCA program system, version 5.0
     WIRES Comput. Molec. Sci., 2022 12(1)e1606
     doi.org/10.1002/wcms.1606

List of papers to cite with high priority. The work reported in these papers was absolutely
necessary for this run to complete.
Our perspective: the developers of density functionals and basis sets usually get cited in chemistry papers
Good! But without the algorithms to do something with them, the functionals or basis sets would not do anything.
Hence, in our opinion, the algorithm design and method developments papers are equally worthy of getting cited

  1. Neese,F.
     An improvement of the resolution of the identity approximation for the formation of the Coulomb matrix
     J. Comp. Chem., 2003 24(14)1740-1747
     doi.org/10.1002/jcc.10318
  2. Neese,F.; Wennmohs,F.; Hansen,A.; Becker,U.
     Efficient, approximate and parallel Hartree-Fock and hybrid DFT calculations. A 'chain-of-spheres' algorithm for the Hartree-Fock exchange
     Chem. Phys., 2009 356(1-3)98-109
     doi.org/10.1016/j.chemphys.2008.10.036
  3. Helmich-Paris,B.; de Souza,B.; Neese,F.; Izsák,R.
     An improved chain of spheres for exchange algorithm
     J. Chem. Phys., 2021 155 104109
     doi.org/doi: 10.1063/5.0058766.
  4. Neese,F.
     The SHARK Integral Generation and Digestion System
     J. Comp. Chem., 2022  1-16
     doi.org/10.1002/jcc.26942
  5. Grimme,S.; Antony,J.; Ehrlich,S.; Krieg,H.
     A consistent and accurate ab initio parametrization of density functional dispersion correction (DFT-D) for the 94 elements H-Pu
     J. Chem. Phys., 2010 132 154104
     doi.org/10.1063/1.3382344
  6. Grimme,S.; Ehrlich,S.; Goerigk,L.
     Effect of the damping function in dispersion corrected density functional theory
     J. Comput. Chem., 2011 32(7)1456-1465
     doi.org/10.1002/jcc.21759

List of suggested additional citations. These are papers that are important in the 'surrounding' of 
of this run, or papers that preceded the highly important papers. If you like your results we are grateful for a citation.

  1. Izsak,R.; Neese,F.
     An overlap fitted chain of spheres exchange method
     J. Chem. Phys., 2011 135 144105
     doi.org/10.1063/1.3646921
  2. Izsak,R.; Hansen,A.; Neese,F.
     The resolution of identity and chain of spheres approximations for the LPNO-CCSD singles Fock term
     Molec. Phys., 2012 110 2413-2417
     doi.org/10.1080/00268976.2012.687466
  3. Neese,F.
     The ORCA program system
     WIRES Comput. Molec. Sci., 2012 2(1)73-78
     doi.org/10.1002/wcms.81
  4. Izsak,R.; Neese,F.; Klopper,W.
     Robust fitting techniques in the chain of spheres approximation to the Fock exchange: The role of the complementary space
     J. Chem. Phys., 2013 139 
     doi.org/10.1063/1.4819264
  5. Neese,F.
     Software update: the ORCA program system, version 4.0
     WIRES Comput. Molec. Sci., 2018 8(1)1-6
     doi.org/10.1002/wcms.1327
  6. Neese,F.; Wennmohs,F.; Becker,U.; Riplinger,C.
     The ORCA quantum chemistry program package
     J. Chem. Phys., 2020 152 Art. No. L224108
     doi.org/10.1063/5.0004608

List of optional additional citations

  1. Neese,F.
     Approximate second-order SCF convergence for spin unrestricted wavefunctions
     Chem. Phys. Lett., 2000 325(1-3)93-98
     doi.org/10.1016/s0009-2614(00)00662-x

Timings for individual modules:

Sum of individual times          ...      609.981 sec (=  10.166 min)
Startup calculation              ...      127.761 sec (=   2.129 min)  20.9 %
SCF iterations                   ...      324.761 sec (=   5.413 min)  53.2 %
SCF Gradient evaluation          ...      156.968 sec (=   2.616 min)  25.7 %
Geometry relaxation              ...        0.491 sec (=   0.008 min)   0.1 %
                             ****ORCA TERMINATED NORMALLY****
TOTAL RUN TIME: 0 days 0 hours 11 minutes 32 seconds 366 msec
