
                                 *****************
                                 * O   R   C   A *
                                 *****************

                                            #,                                       
                                            ###                                      
                                            ####                                     
                                            #####                                    
                                            ######                                   
                                           ########,                                 
                                     ,,################,,,,,                         
                               ,,#################################,,                 
                          ,,##########################################,,             
                       ,#########################################, ''#####,          
                    ,#############################################,,   '####,        
                  ,##################################################,,,,####,       
                ,###########''''           ''''###############################       
              ,#####''   ,,,,##########,,,,          '''####'''          '####       
            ,##' ,,,,###########################,,,                        '##       
           ' ,,###''''                  '''############,,,                           
         ,,##''                                '''############,,,,        ,,,,,,###''
      ,#''                                            '''#######################'''  
     '                                                          ''''####''''         
             ,#######,   #######,   ,#######,      ##                                
            ,#'     '#,  ##    ##  ,#'     '#,    #''#        ,####,   ,####,        
            ##       ##  ##   ,#'  ##            #'  '#       #'       #'  '#        
            ##       ##  #######   ##           ,######,      #####,   #    #        
            '#,     ,#'  ##    ##  '#,     ,#' ,#      #,     #,   #   #,  ,#        
             '#######'   ##     ##  '#######'  #'      '#     '####' # '####'        



                #########################################################
                #                        -***-                          #
                #          Department of theory and spectroscopy        #
                #                                                       #
                #                      Frank Neese                      #
                #                                                       #
                #     Directorship, Architecture, Infrastructure        #
                #                    SHARK, DRIVERS                     #
                #        Core code/Algorithms in most modules           #
                #                                                       #
                #        Max Planck Institute fuer Kohlenforschung      #
                #                Kaiser Wilhelm Platz 1                 #
                #                 D-45470 Muelheim/Ruhr                 #
                #                      Germany                          #
                #                                                       #
                #                  All rights reserved                  #
                #                        -***-                          #
                #########################################################


                         Program Version 6.0.1  -  RELEASE   -


 With contributions from (in alphabetic order):
[Max-Planck-Institut fuer Kohlenforschung]                               
  Daniel Aravena         : Magnetic Suceptibility                        
  Michael Atanasov       : Ab Initio Ligand Field Theory (pilot matlab implementation)
  Alexander A. Auer      : GIAO ZORA, VPT2 properties, NMR spectrum      
  Ute Becker             : All parallelization in ORCA, NUMFREQ, NUMCALC 
  Giovanni Bistoni       : ED, misc. LED, open-shell LED, HFLD           
  Martin Brehm           : Molecular dynamics                            
  Dmytro Bykov           : pre 5.0 version of the SCF Hessian            
  Marcos Casanova-Páez   : Triplet and SCS-CIS(D). UHF-(DLPNO)-IP/EA/STEOM-CCSD. UHF-CVS-IP/STEOM-CCSD   
  Vijay G. Chilkuri      : MRCI spin determinant printing, contributions to CSF-ICE 
  Pauline Colinet        : FMM embedding                                 
  Dipayan Datta          : RHF DLPNO-CCSD density                        
  Achintya Kumar Dutta   : EOM-CC, STEOM-CC                              
  Nicolas Foglia         : Exact transition moments, OPA infrastructure, MCD improvements    
  Dmitry Ganyushin       : Spin-Orbit,Spin-Spin,Magnetic field MRCI      
  Miquel Garcia-Rates    : C-PCM and meta-GGA Hessian, CCSD/C-PCM, Gaussian charge scheme 
  Tiago L. C. Gouveia    : GS-ROHF, GS-ROCIS                             
  Yang Guo               : DLPNO-NEVPT2, F12-NEVPT2, CIM, IAO-localization        
  Andreas Hansen         : Spin unrestricted coupled pair/coupled cluster methods 
  Ingolf Harden          : AUTO-CI MPn and infrastructure                
  Benjamin Helmich-Paris : MC-RPA, TRAH-(SCF,CASSCF), AVAS, COSX integrals, SCF dyn. polar. 
  Lee Huntington         : MR-EOM, pCC                                   
  Robert Izsak           : Overlap fitted RIJCOSX, COSX-SCS-MP3, EOM     
  Riya Kayal             : Wick's Theorem for AUTO-CI, AUTO-CI UHF-CCSDT 
  Emily Kempfer          : AUTO-CI, RHF CISDT and CCSDT                  
  Christian Kollmar      : KDIIS, OOCD, Brueckner-CCSD(T), CCSD density, CASPT2, CASPT2-K, improved NEVPT2 
  Axel Koslowski         : Symmetry handling                             
  Simone Kossmann        : meta-GGA functionals, TD-DFT gradient, OOMP2, (MP2 Hessian; deprecated post 5.0) 
  Lucas Lang             : DCDCAS                                        
  Marvin Lechner         : AUTO-CI (C++ implementation), FIC-MRCC        
  Spencer Leger          : CASSCF response                               
  Dagmar Lenk            : GEPOL surface, SMD, ORCA-2-JSON               
  Dimitrios Liakos       : Extrapolation schemes; Compound Job, initial MDCI parallelization 
  Dimitrios Manganas     : Further ROCIS development; embedding schemes. LFT, Crystal Embedding 
  Dimitrios Pantazis     : SARC Basis sets                               
  Anastasios Papadopoulos: AUTO-CI, single reference methods and gradients 
  Taras Petrenko         : pre 6.0 DFT Hessian and TD-DFT gradient, (ASA, deprecated), ECA, 1-Electron XAS/XES, NRVS 
  Peter Pinski           : DLPNO-MP2, DLPNO-MP2 Gradient                 
  Christoph Reimann      : Effective Core Potentials                     
  Marius Retegan         : Local ZFS, SOC                                
  Christoph Riplinger    : Optimizer, TS searches, QM/MM, DLPNO-CCSD(T), (RO)-DLPNO pert. Triples 
  Michael Roemelt        : Original ROCIS implementation                 
  Masaaki Saitow         : Open-shell DLPNO-CCSD energy and density      
  Barbara Sandhoefer     : DKH picture change effects                    
  Kantharuban Sivalingam : CASSCF convergence/infrastructure, NEVPT2 and variants, FIC-MRCI 
  Bernardo de Souza      : ESD, SOC TD-DFT                               
  Georgi L. Stoychev     : AutoAux, RI-MP2 NMR, DLPNO-MP2 response, X2C  
  Van Anh Tran           : RI-MP2 g-tensors                              
  Willem Van den Heuvel  : Paramagnetic NMR                              
  Zikuan Wang            : NOTCH, Electric field optimization            
  Frank Wennmohs         : Technical directorship and infrastructure     
  Hang Xu                : AUTO-CI-Response properties                   
                                                                         
[FACCTs GmbH]                                                            
  Markus Bursch, Miquel Garcia-Rates, Christoph Riplinger, Bernardo de Souza, Georgi L. Stoychev 
                                                                 
  APM, Basis sets (HGBS, AHGBS, def-TZVP (Ac-Lr), def2-XVPD (La-Lu)), CI-OPT, improved COSX, DLPNO-Multilevel,           
  DOCKER, DRACO, updates on ESD, GOAT, IRC, LR-CPCM, MBIS, meta-GGA TD-DFT gradient, ML-optimized integration grids, 
  MM, NACMEs, nearIR, NEB, NEB-TS, NL-DFT gradient (VV10), 2- and 3-layer-ONIOM, interface openCOSMO-RS, QMMM,   
  Crystal-QMMM, SF, symmetry and pop. for TD-DFT, r2SCAN hybrids, SOLVATOR                                   
                                                                         
[Other institutions]                                                     
  V. Asgeirsson          : NEB                                           
  Christoph Bannwarth    : sTDA-DFT, sTD-DFT, PBEh-3c, B97-3c, D3        
  Sebastian Ehlert       : rSCAN, r2SCAN, r2SCAN-3c, D4, dhf basis sets  
  Marvin Friede          : D4 for Fr, Ra, Ac-Lr                          
  Lars Goerigk           : TD-DFT with DH, B97 family of functionals     
  Stefan Grimme          : VdW corrections, initial TS optimization, DFT functionals, gCP, sTDA/sTD-DF 
  Waldemar Hujo          : DFT-NL                                        
  H. Jonsson             : NEB                                           
  Holger Kruse           : gCP                                           
  Marcel Mueller         : wB97X-3c, vDZP basis set                      
  Hagen Neugebauer       : wr2SCAN                                       
  Tobias Risthaus        : range-separated hybrid DFT                    
  Lukas Wittmann         : regularized MP2, r2SCAN double-hybrids, wr2SCAN        
                                                                         
We gratefully acknowledge several colleagues who have allowed us to      
interface, adapt or use parts of their codes:                            
  Ed Valeev, F. Pavosevic, A. Kumar             : LibInt (2-el integral package), F12 methods 
  Garnet Chan, S. Sharma, J. Yang, R. Olivares  : DMRG                   
  Ulf Ekstrom                                   : XCFun DFT Library      
  Mihaly Kallay                                 : mrcc  (arbitrary order and MRCC methods)
  Frank Weinhold                                : gennbo (NPA and NBO analysis)           
  Simon Mueller                                 : openCOSMO-RS                            
  Christopher J. Cramer and Donald G. Truhlar   : smd solvation model                     
  S Lehtola, MJT Oliveira, MAL Marques          : LibXC Library                           
  Liviu Ungur et al                             : ANISO software                          


 Your calculation uses the libint2 library for the computation of 2-el integrals
 For citations please refer to: http://libint.valeyev.net

 Your ORCA version has been built with support for libXC version: 6.2.2
 For citations please refer to: https://libxc.gitlab.io

 This ORCA versions uses:
   CBLAS   interface :  Fast vector & matrix operations
   LAPACKE interface :  Fast linear algebra routines
   SCALAPACK package :  Parallel linear algebra routines
   Shared memory     :  Shared parallel matrices
   BLAS/LAPACK       :  OpenBLAS 0.3.27  USE64BITINT DYNAMIC_ARCH NO_AFFINITY SkylakeX SINGLE_THREADED
        Core in use  :  SkylakeX
   Copyright (c) 2011-2014, The OpenBLAS Project


NOTE: MaxCore=5000 MB was set to SCF,MP2,MDCI,CIPSI,MRCI and CIS
      => If you want to overwrite this, your respective input block should be placed after the MaxCore statement
Your calculation utilizes the atom-pairwise dispersion correction
with the Becke-Johnson damping scheme (D3BJ)


Warning: RI is on but no J-basis has been assigned. Assigning Def2/J (nothing to worry about!)
================================================================================

----- Orbital basis set information -----
Your calculation utilizes the basis: def2-TZVP
   F. Weigend and R. Ahlrichs, Phys. Chem. Chem. Phys. 7, 3297 (2005).

----- AuxJ basis set information -----
Your calculation utilizes the auxiliary basis: def2/J
   F. Weigend, Phys. Chem. Chem. Phys. 8, 1057 (2006).

================================================================================
                                        WARNINGS
                       Please study these warnings very carefully!
================================================================================


WARNING: Geometry Optimization
  ===> : Switching off AutoStart
         For restart on a previous wavefunction, please use MOREAD

================================================================================
                                       INPUT FILE
================================================================================
NAME = /home/ys/Research/PSID_server_room/orca/zinc_hydrate_2/zinc_hydrate_2.inp
|  1> ! TPSSh def2-TZVP OPT SlowConv ALLPOP KEEPDENS D3BJ CPCM(WATER)
|  2> 
|  3> %maxcore 5000
|  4> 
|  5> %pal
|  6> nprocs 20
|  7> end
|  8> 
|  9> * xyz 2 1
| 10>   Zn          1.02364475438320      0.91044315734202      1.17116331075490
| 11>   H          -0.95342505972436     -0.02719482290239     -0.38954265142863
| 12>   O          -0.83246721570820      0.73208903894591      0.20432113111855
| 13>   H          -1.60512185442139      0.73028959302941      0.79378431834766
| 14>   H           3.65416558514113      1.04732816869309      1.45494462091268
| 15>   O           2.91002716948236      1.05640772922713      2.08008555031703
| 16>   H           3.06449153913463      1.81937271857391      2.66145978961571
| 17>   H           0.60811495405729      2.96680972699777     -0.45588181813805
| 18>   O           1.17766264405291      2.82910472533790      0.31951281518450
| 19>   H           2.06170005126903      3.12893595285740      0.05058599961877
| 20>   H           0.18912580405209     -1.58262806558317      1.72839169413752
| 21>   O           0.77785563736739     -0.93179495642250      2.14515815731855
| 22>   H           1.59694354664894     -1.41314253237115      2.34951645022746
| 23>   H           0.15193599251480      1.39262586321963      3.65179371469133
| 24>   O           0.03632294145932      1.81222800324864      2.78331319954990
| 25>   H           0.22890808736414      2.75485833337241      2.91822204122417
| 26>   H           1.87700197559256     -0.92026199170526     -0.60339135898568
| 27>   O           2.02767061502620      0.02958275287409     -0.46362443447035
| 28>   H           1.89811283230788      0.44440660526511     -1.33280252999611
| 29> *
| 30> 
| 31>                          ****END OF INPUT****
================================================================================

                       *****************************
                       * Geometry Optimization Run *
                       *****************************

Geometry optimization settings:
Update method            Update   .... BFGS
Choice of coordinates    CoordSys .... (2022) Redundant Internals
Initial Hessian          InHess   .... Almloef's Model
Max. no of cycles        MaxIter  .... 57

Convergence Tolerances:
Energy Change            TolE     ....  5.0000e-06 Eh
Max. Gradient            TolMAXG  ....  3.0000e-04 Eh/bohr
RMS Gradient             TolRMSG  ....  1.0000e-04 Eh/bohr
Max. Displacement        TolMAXD  ....  4.0000e-03 bohr
RMS Displacement         TolRMSD  ....  2.0000e-03 bohr
Strict Convergence                .... False

------------------------------------------------------------------------------
                        ORCA OPTIMIZATION COORDINATE SETUP
------------------------------------------------------------------------------

The optimization will be done in redundant internal coordinates (2022)
Making redundant internal coordinates   ...  (2022 redundants) done
Evaluating the initial hessian          ...  (Almloef) done
Evaluating the coordinates              ...  done
Calculating the B-matrix                .... done
Calculating the G-matrix                .... done
Diagonalizing the G-matrix              .... done
The first mode is                       ....   57
The number of degrees of freedom        ....   51

    -----------------------------------------------------------------
                    Redundant Internal Coordinates


    -----------------------------------------------------------------
         Definition                    Initial Value    Approx d2E/dq
    -----------------------------------------------------------------
      1. B(O   2,H   1)                  0.9715         0.498443   
      2. B(O   2,Zn  0)                  2.1004         0.416464   
      3. B(H   3,O   2)                  0.9718         0.497832   
      4. B(O   5,H   4)                  0.9719         0.497682   
      5. B(O   5,Zn  0)                  2.0990         0.418605   
      6. B(H   6,O   5)                  0.9716         0.498298   
      7. B(O   8,Zn  0)                  2.1048         0.409771   
      8. B(O   8,H   7)                  0.9719         0.497721   
      9. B(H   9,O   8)                  0.9715         0.498513   
     10. B(O  11,H  10)                  0.9715         0.498383   
     11. B(O  11,Zn  0)                  2.0983         0.419693   
     12. B(H  12,O  11)                  0.9718         0.497929   
     13. B(O  14,H  13)                  0.9714         0.498562   
     14. B(O  14,Zn  0)                  2.0945         0.425570   
     15. B(H  15,O  14)                  0.9715         0.498420   
     16. B(O  17,H  16)                  0.9718         0.497855   
     17. B(O  17,Zn  0)                  2.1110         0.400514   
     18. B(H  18,O  17)                  0.9718         0.497955   
     19. A(O   5,Zn  0,O   8)           92.6399         0.467979   
     20. A(O   2,Zn  0,O  17)           91.6270         0.465587   
     21. A(O  11,Zn  0,O  14)           88.0233         0.471462   
     22. A(O   5,Zn  0,O  14)           93.4624         0.471238   
     23. A(O   2,Zn  0,O  14)           88.5275         0.470795   
     24. A(O   2,Zn  0,O   8)           87.4676         0.467539   
     25. A(O   5,Zn  0,O  17)           86.3835         0.466024   
     26. A(O   8,Zn  0,O  17)           91.8464         0.464208   
     27. A(O  11,Zn  0,O  17)           92.7989         0.466246   
     28. A(O   8,Zn  0,O  14)           87.3326         0.469397   
     29. A(O   2,Zn  0,O  11)           92.0404         0.469595   
     30. A(O   5,Zn  0,O  11)           88.0128         0.470037   
     31. A(Zn  0,O   2,H   1)          117.2433         0.383592   
     32. A(Zn  0,O   2,H   3)          115.0577         0.383511   
     33. A(H   1,O   2,H   3)          105.6843         0.317359   
     34. A(H   4,O   5,H   6)          105.6936         0.317328   
     35. A(Zn  0,O   5,H   6)          117.1677         0.383915   
     36. A(Zn  0,O   5,H   4)          114.1361         0.383832   
     37. A(H   7,O   8,H   9)          105.5864         0.317355   
     38. A(Zn  0,O   8,H   9)          117.3831         0.382523   
     39. A(Zn  0,O   8,H   7)          114.1473         0.382418   
     40. A(Zn  0,O  11,H  12)          115.7063         0.384039   
     41. A(Zn  0,O  11,H  10)          117.3876         0.384100   
     42. A(H  10,O  11,H  12)          105.6139         0.317363   
     43. A(H  13,O  14,H  15)          105.7451         0.317432   
     44. A(Zn  0,O  14,H  15)          115.5427         0.385035   
     45. A(Zn  0,O  14,H  13)          116.4906         0.385054   
     46. A(H  16,O  17,H  18)          105.5402         0.317311   
     47. A(Zn  0,O  17,H  18)          116.8153         0.380935   
     48. A(Zn  0,O  17,H  16)          116.4529         0.380922   
     49. D(H   1,O   2,Zn  0,O  17)     32.0485         0.002413   
     50. D(H   1,O   2,Zn  0,O   8)    123.8254         0.002413   
     51. D(H   1,O   2,Zn  0,O  14)   -148.7803         0.002413   
     52. D(H   1,O   2,Zn  0,O  11)    -60.8114         0.002413   
     53. D(H   3,O   2,Zn  0,O  14)    -23.5836         0.002413   
     54. D(H   3,O   2,Zn  0,O  17)    157.2451         0.002413   
     55. D(H   3,O   2,Zn  0,O  11)     64.3853         0.002413   
     56. D(H   3,O   2,Zn  0,O   8)   -110.9780         0.002413   
     57. D(H   6,O   5,Zn  0,O   8)     55.2656         0.002423   
     58. D(H   6,O   5,Zn  0,O  11)   -120.1175         0.002423   
     59. D(H   4,O   5,Zn  0,O  14)   -156.4914         0.002423   
     60. D(H   4,O   5,Zn  0,O  17)     22.6785         0.002423   
     61. D(H   4,O   5,Zn  0,O  11)    115.6104         0.002423   
     62. D(H   6,O   5,Zn  0,O  14)    -32.2193         0.002423   
     63. D(H   6,O   5,O   2,H   1)    178.4713         0.001500   
     64. D(H   4,O   5,O   2,H   3)    179.5538         0.001500   
     65. D(H   4,O   5,O   2,H   1)     54.2962         0.001500   
     66. D(H   4,O   5,Zn  0,O   8)    -69.0065         0.002423   
     67. D(H   6,O   5,O   2,H   3)    -56.2711         0.001500   
     68. D(H   6,O   5,Zn  0,O  17)    146.9506         0.002423   
     69. D(H   9,O   8,Zn  0,O  17)    -53.0720         0.002384   
     70. D(H   9,O   8,Zn  0,O   5)     33.3911         0.002384   
     71. D(H   9,O   8,Zn  0,O   2)   -144.6198         0.002384   
     72. D(H   7,O   8,Zn  0,O  17)     71.2491         0.002384   
     73. D(H   7,O   8,Zn  0,O  14)   -108.9412         0.002384   
     74. D(H   9,O   8,Zn  0,O  14)    126.7376         0.002384   
     75. D(H   7,O   8,Zn  0,O   5)    157.7122         0.002384   
     76. D(H   7,O   8,Zn  0,O   2)    -20.2986         0.002384   
     77. D(H  10,O  11,Zn  0,O  14)    113.1470         0.002427   
     78. D(H  10,O  11,Zn  0,O   5)   -153.3177         0.002427   
     79. D(H  10,O  11,Zn  0,O   2)     24.6917         0.002427   
     80. D(H  12,O  11,O   8,H   9)      5.7540         0.001500   
     81. D(H  10,O  11,O   8,H   9)   -122.2219         0.001500   
     82. D(H  10,O  11,O   8,H   7)      4.0661         0.001500   
     83. D(H  12,O  11,Zn  0,O  17)     58.8235         0.002427   
     84. D(H  12,O  11,Zn  0,O  14)   -120.9914         0.002427   
     85. D(H  12,O  11,Zn  0,O   5)    -27.4561         0.002427   
     86. D(H  12,O  11,O   8,H   7)    132.0420         0.001500   
     87. D(H  12,O  11,Zn  0,O   2)    150.5533         0.002427   
     88. D(H  10,O  11,Zn  0,O  17)    -67.0381         0.002427   
     89. D(H  15,O  14,Zn  0,O  11)    156.2708         0.002453   
     90. D(H  15,O  14,Zn  0,O   5)     68.3826         0.002453   
     91. D(H  15,O  14,Zn  0,O   2)   -111.6361         0.002453   
     92. D(H  13,O  14,Zn  0,O  11)     31.2269         0.002453   
     93. D(H  13,O  14,Zn  0,O   8)   -149.1472         0.002453   
     94. D(H  15,O  14,Zn  0,O   8)    -24.1034         0.002453   
     95. D(H  13,O  14,Zn  0,O   5)    -56.6613         0.002453   
     96. D(H  13,O  14,Zn  0,O   2)    123.3200         0.002453   
     97. D(H  18,O  17,O  14,H  15)    -55.9883         0.001500   
     98. D(H  16,O  17,O  14,H  15)    177.9650         0.001500   
     99. D(H  16,O  17,O  14,H  13)     53.0301         0.001500   
    100. D(H  18,O  17,Zn  0,O  11)    147.5612         0.002345   
    101. D(H  18,O  17,Zn  0,O   8)    -32.0799         0.002345   
    102. D(H  18,O  17,Zn  0,O   5)   -124.6096         0.002345   
    103. D(H  18,O  17,Zn  0,O   2)     55.4379         0.002345   
    104. D(H  16,O  17,Zn  0,O  11)     21.6307         0.002345   
    105. D(H  16,O  17,Zn  0,O   8)   -158.0103         0.002345   
    106. D(H  18,O  17,O  14,H  13)    179.0769         0.001500   
    107. D(H  16,O  17,Zn  0,O   5)    109.4600         0.002345   
    108. D(H  16,O  17,Zn  0,O   2)    -70.4925         0.002345   
    -----------------------------------------------------------------

Number of atoms                         .... 19
Number of degrees of freedom            .... 108


         *************************************************************
         *                GEOMETRY OPTIMIZATION CYCLE   1            *
         *************************************************************
---------------------------------
CARTESIAN COORDINATES (ANGSTROEM)
---------------------------------
  Zn     1.023645    0.910443    1.171163
  H     -0.953425   -0.027195   -0.389543
  O     -0.832467    0.732089    0.204321
  H     -1.605122    0.730290    0.793784
  H      3.654166    1.047328    1.454945
  O      2.910027    1.056408    2.080086
  H      3.064492    1.819373    2.661460
  H      0.608115    2.966810   -0.455882
  O      1.177663    2.829105    0.319513
  H      2.061700    3.128936    0.050586
  H      0.189126   -1.582628    1.728392
  O      0.777856   -0.931795    2.145158
  H      1.596944   -1.413143    2.349516
  H      0.151936    1.392626    3.651794
  O      0.036323    1.812228    2.783313
  H      0.228908    2.754858    2.918222
  H      1.877002   -0.920262   -0.603391
  O      2.027671    0.029583   -0.463624
  H      1.898113    0.444407   -1.332803

----------------------------
CARTESIAN COORDINATES (A.U.)
----------------------------
  NO LB      ZA    FRAG     MASS         X           Y           Z
   0 Zn   30.0000    0    65.380    1.934408    1.720488    2.213178
   1 H     1.0000    0     1.008   -1.801712   -0.051391   -0.736129
   2 O     8.0000    0    15.999   -1.573135    1.383448    0.386111
   3 H     1.0000    0     1.008   -3.033241    1.380047    1.500035
   4 H     1.0000    0     1.008    6.905372    1.979163    2.749447
   5 O     8.0000    0    15.999    5.499154    1.996321    3.930792
   6 H     1.0000    0     1.008    5.791050    3.438116    5.029430
   7 H     1.0000    0     1.008    1.149171    5.606458   -0.861492
   8 O     8.0000    0    15.999    2.225460    5.346233    0.603792
   9 H     1.0000    0     1.008    3.896048    5.912832    0.095594
  10 H     1.0000    0     1.008    0.357396   -2.990734    3.266187
  11 O     8.0000    0    15.999    1.469934   -1.760837    4.053761
  12 H     1.0000    0     1.008    3.017786   -2.670452    4.439943
  13 H     1.0000    0     1.008    0.287117    2.631681    6.900890
  14 O     8.0000    0    15.999    0.068640    3.424615    5.259700
  15 H     1.0000    0     1.008    0.432574    5.205928    5.514640
  16 H     1.0000    0     1.008    3.547020   -1.739043   -1.140244
  17 O     8.0000    0    15.999    3.831742    0.055903   -0.876123
  18 H     1.0000    0     1.008    3.586913    0.839807   -2.518632

--------------------------------
INTERNAL COORDINATES (ANGSTROEM)
--------------------------------
 Zn     0   0   0     0.000000000000     0.00000000     0.00000000
 H      1   0   0     2.687707784014     0.00000000     0.00000000
 O      2   1   0     0.971502431862    44.01125863     0.00000000
 H      3   2   1     0.971836034436   105.68429884   230.25488024
 H      1   2   3     2.649322400045   144.15472014   209.67651712
 O      5   1   2     0.971918515975    46.30447183   208.08666875
 H      6   5   1     0.971581608812   105.69356163   229.78883544
 H      1   2   3     2.654917010984    78.41702305   301.50149317
 O      8   1   2     0.971897153019    46.33838501   175.28400940
 H      9   8   1     0.971464118989   105.58642867   130.41683728
 H      1   2   3     2.687439203459    64.42767444   121.39627833
 O     11   1   2     0.971535299126    43.88961234   189.10553813
 H     12  11   1     0.971783311178   105.61393590   229.30622034
 H      1   2   3     2.673182284899   111.21747142    51.03079743
 O     14   1   2     0.971437459990    44.52883898   287.62989350
 H     15  14   1     0.971514988693   105.74510301   230.12929738
 H      1   2   3     2.688632396896    67.21150545   195.40855411
 O     17   1   2     0.971823477234    44.66555391   113.94660919
 H     18  17   1     0.971768804458   105.54023297   228.59703774

---------------------------
INTERNAL COORDINATES (A.U.)
---------------------------
 Zn     0   0   0     0.000000000000     0.00000000     0.00000000
 H      1   0   0     5.079031639794     0.00000000     0.00000000
 O      2   1   0     1.835873534657    44.01125863     0.00000000
 H      3   2   1     1.836503952161   105.68429884   230.25488024
 H      1   2   3     5.006493776548   144.15472014   209.67651712
 O      5   1   2     1.836659819680    46.30447183   208.08666875
 H      6   5   1     1.836023157409   105.69356163   229.78883544
 H      1   2   3     5.017066059048    78.41702305   301.50149317
 O      8   1   2     1.836619449544    46.33838501   175.28400940
 H      9   8   1     1.835801133821   105.58642867   130.41683728
 H      1   2   3     5.078524096100    64.42767444   121.39627833
 O     11   1   2     1.835935644785    43.88961234   189.10553813
 H     12  11   1     1.836404319641   105.61393590   229.30622034
 H      1   2   3     5.051582424510   111.21747142    51.03079743
 O     14   1   2     1.835750755613    44.52883898   287.62989350
 H     15  14   1     1.835897263629   105.74510301   230.12929738
 H      1   2   3     5.080778904921    67.21150545   195.40855411
 O     17   1   2     1.836480222486    44.66555391   113.94660919
 H     18  17   1     1.836376905913   105.54023297   228.59703774

---------------------
BASIS SET INFORMATION
---------------------
There are 3 groups of distinct atoms

 Group   1 Type Zn  : 17s12p7d1f contracted to 6s5p4d1f pattern {842111/63111/4111/1}
 Group   2 Type H   : 5s1p contracted to 3s1p pattern {311/1}
 Group   3 Type O   : 11s6p2d1f contracted to 5s3p2d1f pattern {62111/411/11/1}

Atom   0Zn   basis set group =>   1
Atom   1H    basis set group =>   2
Atom   2O    basis set group =>   3
Atom   3H    basis set group =>   2
Atom   4H    basis set group =>   2
Atom   5O    basis set group =>   3
Atom   6H    basis set group =>   2
Atom   7H    basis set group =>   2
Atom   8O    basis set group =>   3
Atom   9H    basis set group =>   2
Atom  10H    basis set group =>   2
Atom  11O    basis set group =>   3
Atom  12H    basis set group =>   2
Atom  13H    basis set group =>   2
Atom  14O    basis set group =>   3
Atom  15H    basis set group =>   2
Atom  16H    basis set group =>   2
Atom  17O    basis set group =>   3
Atom  18H    basis set group =>   2
---------------------------------
AUXILIARY/J BASIS SET INFORMATION
---------------------------------
There are 3 groups of distinct atoms

 Group   1 Type Zn  : 19s5p5d3f3g contracted to 8s5p5d2f3g pattern {121111111/11111/11111/21/111}
 Group   2 Type H   : 5s2p1d contracted to 3s1p1d pattern {311/2/1}
 Group   3 Type O   : 12s5p4d2f1g contracted to 6s4p3d1f1g pattern {711111/2111/211/2/1}

Atom   0Zn   basis set group =>   1
Atom   1H    basis set group =>   2
Atom   2O    basis set group =>   3
Atom   3H    basis set group =>   2
Atom   4H    basis set group =>   2
Atom   5O    basis set group =>   3
Atom   6H    basis set group =>   2
Atom   7H    basis set group =>   2
Atom   8O    basis set group =>   3
Atom   9H    basis set group =>   2
Atom  10H    basis set group =>   2
Atom  11O    basis set group =>   3
Atom  12H    basis set group =>   2
Atom  13H    basis set group =>   2
Atom  14O    basis set group =>   3
Atom  15H    basis set group =>   2
Atom  16H    basis set group =>   2
Atom  17O    basis set group =>   3
Atom  18H    basis set group =>   2


           ************************************************************
           *        Program running with 20 parallel MPI-processes    *
           *              working on a common directory               *
           ************************************************************
------------------------------------------------------------------------------
                             ORCA STARTUP CALCULATIONS
                           -- RI-GTO INTEGRALS CHOSEN --
------------------------------------------------------------------------------
------------------------------------------------------------------------------
                   ___                                                        
                  /   \      - P O W E R E D   B Y -                         
                 /     \                                                     
                 |  |  |   _    _      __       _____    __    __             
                 |  |  |  | |  | |    /  \     |  _  \  |  |  /  |          
                  \  \/   | |  | |   /    \    | | | |  |  | /  /          
                 / \  \   | |__| |  /  /\  \   | |_| |  |  |/  /          
                |  |  |   |  __  | /  /__\  \  |    /   |      \           
                |  |  |   | |  | | |   __   |  |    \   |  |\   \          
                \     /   | |  | | |  |  |  |  | |\  \  |  | \   \       
                 \___/    |_|  |_| |__|  |__|  |_| \__\ |__|  \__/        
                                                                              
                      - O R C A' S   B I G   F R I E N D -                    
                                      &                                       
                       - I N T E G R A L  F E E D E R -                       
                                                                              
 v1 FN, 2020, v2 2021, v3 2022-2024                                           
------------------------------------------------------------------------------


----------------------
SHARK INTEGRAL PACKAGE
----------------------

Number of atoms                             ...     19
Number of basis functions                   ...    306
Number of shells                            ...    130
Maximum angular momentum                    ...      3
Integral batch strategy                     ... SHARK/LIBINT Hybrid
RI-J (if used) integral strategy            ... SPLIT-RIJ (Revised 2003 algorithm where possible)
Printlevel                                  ...      1
Contraction scheme used                     ... SEGMENTED contraction
Prescreening option                         ... SCHWARTZ
   Thresh                                   ... 2.500e-11
   Tcut                                     ... 2.500e-12
   Tpresel                                  ... 2.500e-12 
Coulomb Range Separation                    ... NOT USED
Exchange Range Separation                   ... NOT USED
Multipole approximations                    ... NOT USED
Finite Nucleus Model                        ... NOT USED
CABS basis                                  ... NOT available
Auxiliary Coulomb fitting basis             ... AVAILABLE
   # of basis functions in Aux-J            ...    515
   # of shells in Aux-J                     ...    173
   Maximum angular momentum in Aux-J        ...      4
Auxiliary J/K fitting basis                 ... NOT available
Auxiliary Correlation fitting basis         ... NOT available
Auxiliary 'external' fitting basis          ... NOT available

Checking pre-screening integrals            ... done (  0.0 sec) Dimension = 130
Check shell pair data                       ... done (  0.0 sec)
Shell pair information
Shell pair cut-off parameter TPreSel        ...   2.5e-12
Total number of shell pairs                 ...      8515
Shell pairs after pre-screening             ...      7475
Total number of primitive shell pairs       ...     26562
Primitive shell pairs kept                  ...     16215
          la=0 lb=0:   2231 shell pairs
          la=1 lb=0:   2214 shell pairs
          la=1 lb=1:    603 shell pairs
          la=2 lb=0:   1004 shell pairs
          la=2 lb=1:    536 shell pairs
          la=2 lb=2:    121 shell pairs
          la=3 lb=0:    408 shell pairs
          la=3 lb=1:    227 shell pairs
          la=3 lb=2:    106 shell pairs
          la=3 lb=3:     25 shell pairs

Calculating one electron integrals          ... done (  0.0 sec)
Calculating RI/J V-Matrix + Cholesky decomp.... done (  0.0 sec)
Calculating Nuclear repulsion               ... done (  0.0 sec) ENN=    728.989991689303 Eh

Diagonalization of the overlap matrix:
Smallest eigenvalue                        ... 1.598e-03
Time for diagonalization                   ...    0.009 sec
Threshold for overlap eigenvalues          ... 1.000e-07
Number of eigenvalues below threshold      ... 0
Time for construction of square roots      ...    0.006 sec
Total time needed                          ...    0.021 sec

-------------------
DFT GRID GENERATION
-------------------

General Integration Accuracy     IntAcc      ... 4.388
Radial Grid Type                 RadialGrid  ... OptM3 with GC (2021)
Angular Grid (max. ang.)         AngularGrid ... 4 (Lebedev-302)
Angular grid pruning method      GridPruning ... 4 (adaptive)
Weight generation scheme         WeightScheme... mBecke (2022)
Basis function cutoff            BFCut       ... 1.0000e-11
Integration weight cutoff        WCut        ... 1.0000e-14
Partially contracted basis set               ... off
Rotationally invariant grid construction     ... off
Angular grids for H and He will be reduced by one unit
Core-polarized basis detected: some atoms will have their core
                               angular grid increased.

Total number of grid points                  ...    86453
Total number of batches                      ...     1360
Average number of points per batch           ...       63
Average number of grid points per atom       ...     4550

--------------------
COSX GRID GENERATION
--------------------

GRIDX 1
-------
General Integration Accuracy     IntAcc      ... 3.816
Radial Grid Type                 RadialGrid  ... OptM3 with GC (2021)
Angular Grid (max. ang.)         AngularGrid ... 1 (Lebedev-50)
Angular grid pruning method      GridPruning ... 4 (adaptive)
Weight generation scheme         WeightScheme... mBecke (2022)
Basis function cutoff            BFCut       ... 1.0000e-11
Integration weight cutoff        WCut        ... 1.0000e-14
Partially contracted basis set               ... on
Rotationally invariant grid construction     ... off
Angular grids for H and He will be reduced by one unit
Core-polarized basis detected: some atoms will have their core
                               angular grid increased.

Total number of grid points                  ...    15509
Total number of batches                      ...      136
Average number of points per batch           ...      114
Average number of grid points per atom       ...      816
UseSFitting                                  ... on

GRIDX 2
-------
General Integration Accuracy     IntAcc      ... 4.020
Radial Grid Type                 RadialGrid  ... OptM3 with GC (2021)
Angular Grid (max. ang.)         AngularGrid ... 2 (Lebedev-110)
Angular grid pruning method      GridPruning ... 4 (adaptive)
Weight generation scheme         WeightScheme... mBecke (2022)
Basis function cutoff            BFCut       ... 1.0000e-11
Integration weight cutoff        WCut        ... 1.0000e-14
Partially contracted basis set               ... on
Rotationally invariant grid construction     ... off
Angular grids for H and He will be reduced by one unit
Core-polarized basis detected: some atoms will have their core
                               angular grid increased.

Total number of grid points                  ...    25992
Total number of batches                      ...      216
Average number of points per batch           ...      120
Average number of grid points per atom       ...     1368
UseSFitting                                  ... on

GRIDX 3
-------
General Integration Accuracy     IntAcc      ... 4.338
Radial Grid Type                 RadialGrid  ... OptM3 with GC (2021)
Angular Grid (max. ang.)         AngularGrid ... 3 (Lebedev-194)
Angular grid pruning method      GridPruning ... 4 (adaptive)
Weight generation scheme         WeightScheme... mBecke (2022)
Basis function cutoff            BFCut       ... 1.0000e-11
Integration weight cutoff        WCut        ... 1.0000e-14
Partially contracted basis set               ... on
Rotationally invariant grid construction     ... off
Angular grids for H and He will be reduced by one unit
Core-polarized basis detected: some atoms will have their core
                               angular grid increased.

Total number of grid points                  ...    49944
Total number of batches                      ...      400
Average number of points per batch           ...      124
Average number of grid points per atom       ...     2629
UseSFitting                                  ... on
Initializing property integral containers    ... done (  0.0 sec)

SHARK setup successfully completed in   0.9 seconds

Maximum memory used throughout the entire STARTUP-calculation: 30.2 MB


           ************************************************************
           *        Program running with 20 parallel MPI-processes    *
           *              working on a common directory               *
           ************************************************************
-------------------------------------------------------------------------------
                                 ORCA GUESS
                   Start orbitals & Density for SCF / CASSCF
-------------------------------------------------------------------------------

------------
SCF SETTINGS
------------
Hamiltonian:
 Density Functional     Method          .... DFT(GTOs)
 Exchange Functional    Exchange        .... TPSS
 Correlation Functional Correlation     .... TPSS
 LDA part of GGA corr.  LDAOpt          .... PW91-LDA
 Gradients option       PostSCFGGA      .... off
 Hybrid DFT is turned on
   Fraction HF Exchange ScalHFX         ....  0.100000
   Scaling of DF-GGA-X  ScalDFX         ....  0.900000
   Scaling of DF-GGA-C  ScalDFC         ....  1.000000
   Scaling of DF-LDA-C  ScalLDAC        ....  1.000000
   Perturbative correction              ....  0.000000
   NL short-range parameter             ....  5.200000
 RI-approximation to the Coulomb term is turned on
   Number of AuxJ basis functions       .... 515
   RIJ-COSX (HFX calculated with COS-X)).... on


General Settings:
 Integral files         IntName         .... /home/ys/Research/PSID_server_room/orca/zinc_hydrate_2/zinc_hydrate_2
 Hartree-Fock type      HFTyp           .... RHF
 Total Charge           Charge          ....    2
 Multiplicity           Mult            ....    1
 Number of Electrons    NEL             ....   88
 Basis Dimension        Dim             ....  306
 Nuclear Repulsion      ENuc            ....    728.9899916893 Eh

Convergence Acceleration:
 AO-DIIS                CNVDIIS         .... on
   Start iteration      DIISMaxIt       ....     0
   Startup error        DIISStart       ....  0.200000
   # of expansion vecs  DIISMaxEq       ....     5
   Bias factor          DIISBfac        ....   1.050
   Max. coefficient     DIISMaxC        ....  10.000
 MO-DIIS                CNVKDIIS        .... off
 Trust-Rad. Augm. Hess. CNVTRAH         .... auto
   Auto Start mean grad. ratio tolernc. ....  1.125000
   Auto Start start iteration           ....    50
   Auto Start num. interpolation iter.  ....    10
   Max. Number of Micro iterations      ....    24
   Max. Number of Macro iterations      .... Maxiter - #DIIS iter
   Number of Davidson start vectors     ....     2
   Converg. threshold    (grad. norm)   ....   1.000e-05
   Grad. Scal. Fac. for Micro threshold ....   0.100
   Minimum threshold for Micro iter.    ....   1.000e-02
   NR start threshold (gradient norm)   ....   1.000e-04
   Initial trust radius                 ....   0.400
   Minimum AH scaling param. (alpha)    ....   1.000
   Maximum AH scaling param. (alpha)    .... 1000.000
   Quad. conv. algorithm                .... NR
   White noise on init. David. guess    .... on
   Maximum white noise                  ....   0.010
   Pseudo random numbers                .... off
   Inactive MOs                         .... canonical
   Orbital update algorithm             .... Taylor
   Preconditioner                       .... Diag
   Full preconditioner red. dimension   ....   250
 SOSCF                  CNVSOSCF        .... on
   Start iteration      SOSCFMaxIt      ....   150
   Startup grad/error   SOSCFStart      ....  0.001000
   Hessian update       SOSCFHessUp     .... L-BFGS
 Level Shifting         CNVShift        .... on
   Level shift para.    LevelShift      ....    0.2500
   Turn off err/grad.   ShiftErr        ....    0.0000
 Zerner damping         CNVZerner       .... off
 Static damping         CNVDamp         .... on
   Fraction old density DampFac         ....    0.8500
   Max. Damping (<1)    DampMax         ....    0.9800
   Min. Damping (>=0)   DampMin         ....    0.0000
   Turn off err/grad.   DampErr         ....    0.0300

SCF Procedure:
 Maximum # iterations   MaxIter         ....   125
 SCF integral mode      SCFMode         .... Direct
   Integral package                     .... SHARK and LIBINT hybrid scheme
 Reset frequency        DirectResetFreq ....    20
 Integral Threshold     Thresh          ....  2.500e-11 Eh
 Primitive CutOff       TCut            ....  2.500e-12 Eh

Convergence Tolerance:
 Convergence Check Mode ConvCheckMode   .... Total+1el-Energy
 Convergence forced     ConvForced      .... 0
 Energy Change          TolE            ....  1.000e-08 Eh
 1-El. energy change                    ....  1.000e-05 Eh
 Orbital Gradient       TolG            ....  1.000e-05
 Orbital Rotation angle TolX            ....  1.000e-05
 DIIS Error             TolErr          ....  5.000e-07

------------------------------
INITIAL GUESS: MODEL POTENTIAL
------------------------------
Loading Hartree-Fock densities                     ... done
Calculating cut-offs                               ... done
Initializing the effective Hamiltonian             ... done
Setting up the integral package (SHARK)            ... done
Starting the Coulomb interaction                   ... done (   0.0 sec)
Making the grid                                    ... done (   0.1 sec)
Mapping shells                                     ... done
Starting the XC term evaluation                    ... done (   0.0 sec)
  promolecular density results
     # of electrons  =     89.993177400
     EX              =   -122.125614040
     EC              =     -3.396461829
     EX+EC           =   -125.522075869
Transforming the Hamiltonian                       ... done (   0.0 sec)
Diagonalizing the Hamiltonian                      ... done (   0.0 sec)
Back transforming the eigenvectors                 ... done (   0.0 sec)
Now organizing SCF variables                       ... done
                      ------------------
                      INITIAL GUESS DONE (   0.2 sec)
                      ------------------
             **** ENERGY FILE WAS UPDATED (/home/ys/Research/PSID_server_room/orca/zinc_hydrate_2/zinc_hydrate_2.en.tmp) ****
Finished Guess after   0.8 sec
Maximum memory used throughout the entire GUESS-calculation: 19.9 MB


           ************************************************************
           *        Program running with 20 parallel MPI-processes    *
           *              working on a common directory               *
           ************************************************************

-------------------------------------------------------------------------------------------
                                      ORCA LEAN-SCF
                              memory conserving SCF solver
-------------------------------------------------------------------------------------------

--------------------
CPCM SOLVATION MODEL
--------------------
CPCM parameters:
  Epsilon                                         ...      80.1510
  Refrac                                          ...       1.3328
  Rsolv                                           ...       1.3000
  Surface type                                    ... GAUSSIAN VDW
  Discretization scheme                           ... Constant charge density
    Threshold for H atoms                         ...       5.0000 (charges/Ang^2)
    Threshold for non-H atoms                     ...       5.0000 (charges/Ang^2)
  Epsilon function type                           ...         CPCM
Solvent:                                          ... WATER
Radii:
  Scheme                                          ... Element-dependent radii
  Radius for Zn used is    3.1521 Bohr (=   1.6680 Ang.)
  Radius for H  used is    2.4944 Bohr (=   1.3200 Ang.)
  Radius for O  used is    3.4469 Bohr (=   1.8240 Ang.)
Calculating surface                               ...        done! (  0.0s)
Cavity surface points                             ...         1578
Cavity Volume                                     ...    1055.7974
Cavity Surface-area                               ...     662.0492
Calculating surface distance matrix               ...        done! (  0.0s)
Performing Cholesky decomposition & store         ...        done! (  0.1s)
Overall time for CPCM initialization              ...                 0.1s

----------------------------------------D-I-I-S--------------------------------------------
Iteration    Energy (Eh)           Delta-E    RMSDP     MaxDP     DIISErr   Damp  Time(sec)
-------------------------------------------------------------------------------------------
               ***  Starting incremental Fock matrix formation  ***
    1    -2237.5826822479448310     0.00e+00  7.85e-04  2.59e-02  2.67e-01  0.850   0.9
    2    -2237.7097834706009962    -1.27e-01  7.07e-04  2.63e-02  1.85e-01  0.850   0.7
                               ***Turning on AO-DIIS***
    3    -2237.7795334259990341    -6.97e-02  3.01e-04  1.06e-02  1.14e-01  0.850   0.6
    4    -2237.8208241917836858    -4.13e-02  1.68e-04  5.16e-03  8.53e-02  0.850   0.6
    5    -2237.8501752685751853    -2.94e-02  1.22e-04  3.34e-03  6.95e-02  0.850   0.6
    6    -2237.8732054143492860    -2.30e-02  1.02e-04  2.74e-03  5.84e-02  0.850   0.6
    7    -2237.8920514028059188    -1.88e-02  8.82e-05  2.38e-03  4.93e-02  0.850   0.6
    8    -2237.9076674033376548    -1.56e-02  7.61e-05  2.07e-03  4.15e-02  0.850   0.6
    9    -2237.9206088805276522    -1.29e-02  6.45e-05  1.74e-03  3.46e-02  0.850   0.6
   10    -2237.9313659655754236    -1.08e-02  5.42e-05  1.45e-03  2.87e-02  0.850   0.6
   11    -2237.9403310247616901    -8.97e-03  3.04e-04  8.02e-03  2.39e-02  0.000   0.6
   12    -2237.9882884689823186    -4.80e-02  2.93e-05  1.24e-03  3.99e-03  0.000   0.6
   13    -2237.9883281403253932    -3.97e-05  1.29e-05  6.64e-04  3.20e-03  0.000   0.6
                              *** Initializing SOSCF ***
---------------------------------------S-O-S-C-F--------------------------------------
Iteration    Energy (Eh)           Delta-E    RMSDP     MaxDP     MaxGrad    Time(sec)
--------------------------------------------------------------------------------------
   14    -2237.9883346531605639    -6.51e-06  3.22e-06  1.34e-04  8.02e-04     0.6
               *** Restarting incremental Fock matrix formation ***
   15    -2237.9883229824854425     1.17e-05  1.21e-06  3.67e-05  1.12e-05     0.8
   16    -2237.9883229809984186     1.49e-09  5.65e-07  1.44e-05  1.56e-05     0.6
                 **** Energy Check signals convergence ****

               *****************************************************
               *                     SUCCESS                       *
               *           SCF CONVERGED AFTER  16 CYCLES          *
               *****************************************************

Recomputing exchange energy using gridx3       ... done (    0.823 sec)
Old exchange energy                            :    -12.282729763 Eh
New exchange energy                            :    -12.282720163 Eh
Exchange energy change after final integration :      0.000009600 Eh
Total energy after final integration           :  -2237.988313381 Eh
             **** ENERGY FILE WAS UPDATED (/home/ys/Research/PSID_server_room/orca/zinc_hydrate_2/zinc_hydrate_2.en.tmp) ****

----------------
TOTAL SCF ENERGY
----------------

Total Energy       :      -2237.98831338146056 Eh          -60898.75804 eV

Components:
Nuclear Repulsion  :        728.98999168930345 Eh           19836.82616 eV
Electronic Energy  :      -2966.64892348796820 Eh          -80726.62127 eV
One Electron Energy:      -4537.33207014279378 Eh         -123467.08257 eV
Two Electron Energy:       1570.68314665482558 Eh           42740.46130 eV
CPCM Dielectric    :         -0.32939118233399 Eh              -8.96319 eV

Virial components:
Potential Energy   :      -4471.28718334955556 Eh         -121669.90984 eV
Kinetic Energy     :       2233.29886996809455 Eh           60771.15180 eV
Virial Ratio       :          2.00209978318461

DFT components:
N(Alpha)           :       44.000042699726 electrons
N(Beta)            :       44.000042699726 electrons
N(Total)           :       88.000085399451 electrons
E(X)               :     -111.125677905894 Eh       
E(C)               :       -3.390546292511 Eh       
E(XC)              :     -114.516224198405 Eh       

CPCM Solvation Model Properties:
Surface-charge          :         -2.01013424289108
Corrected charge        :         -2.00000000000000
Outlying charge corr.   :          0.00000759410977 Eh               0.00021 eV
Free-energy (cav+disp)  :  This term is not implemented in the current solvation scheme

---------------
SCF CONVERGENCE
---------------

  Last Energy change         ...   -1.4870e-09  Tolerance :   1.0000e-08
  Last MAX-Density change    ...    1.4391e-05  Tolerance :   1.0000e-07
  Last RMS-Density change    ...    5.6456e-07  Tolerance :   5.0000e-09
  Last DIIS Error            ...    8.0186e-04  Tolerance :   5.0000e-07
  Last Orbital Gradient      ...    1.5608e-05  Tolerance :   1.0000e-05
  Last Orbital Rotation      ...    9.2406e-06  Tolerance :   1.0000e-05


----------------
ORBITAL ENERGIES
----------------

  NO   OCC          E(Eh)            E(eV) 
   0   2.0000    -347.008944     -9442.5934 
   1   2.0000     -42.020301     -1143.4305 
   2   2.0000     -36.971542     -1006.0468 
   3   2.0000     -36.971403     -1006.0430 
   4   2.0000     -36.971279     -1006.0396 
   5   2.0000     -19.106501      -519.9143 
   6   2.0000     -19.106466      -519.9134 
   7   2.0000     -19.106395      -519.9114 
   8   2.0000     -19.106387      -519.9112 
   9   2.0000     -19.106227      -519.9069 
  10   2.0000     -19.105930      -519.8988 
  11   2.0000      -4.764396      -129.6458 
  12   2.0000      -3.152732       -85.7902 
  13   2.0000      -3.152628       -85.7874 
  14   2.0000      -3.152572       -85.7858 
  15   2.0000      -1.044355       -28.4184 
  16   2.0000      -1.036516       -28.2050 
  17   2.0000      -1.036198       -28.1964 
  18   2.0000      -1.035970       -28.1902 
  19   2.0000      -1.033556       -28.1245 
  20   2.0000      -1.033376       -28.1196 
  21   2.0000      -0.555871       -15.1260 
  22   2.0000      -0.554001       -15.0751 
  23   2.0000      -0.553432       -15.0597 
  24   2.0000      -0.552828       -15.0432 
  25   2.0000      -0.551635       -15.0107 
  26   2.0000      -0.551183       -14.9985 
  27   2.0000      -0.497603       -13.5405 
  28   2.0000      -0.493975       -13.4418 
  29   2.0000      -0.493535       -13.4298 
  30   2.0000      -0.456711       -12.4277 
  31   2.0000      -0.450248       -12.2519 
  32   2.0000      -0.449024       -12.2186 
  33   2.0000      -0.447246       -12.1702 
  34   2.0000      -0.442303       -12.0357 
  35   2.0000      -0.432219       -11.7613 
  36   2.0000      -0.387706       -10.5500 
  37   2.0000      -0.384678       -10.4676 
  38   2.0000      -0.361875        -9.8471 
  39   2.0000      -0.356666        -9.7054 
  40   2.0000      -0.348327        -9.4785 
  41   2.0000      -0.342182        -9.3113 
  42   2.0000      -0.323013        -8.7896 
  43   2.0000      -0.322635        -8.7793 
  44   0.0000      -0.031692        -0.8624 
  45   0.0000       0.017377         0.4729 
  46   0.0000       0.022164         0.6031 
  47   0.0000       0.026156         0.7117 
  48   0.0000       0.063737         1.7344 
  49   0.0000       0.065405         1.7798 
  50   0.0000       0.092141         2.5073 
  51   0.0000       0.096769         2.6332 
  52   0.0000       0.098536         2.6813 
  53   0.0000       0.104315         2.8386 
  54   0.0000       0.113167         3.0794 
*Only the first 10 virtual orbitals were printed.

                    ********************************
                    * MULLIKEN POPULATION ANALYSIS *
                    ********************************

-----------------------
MULLIKEN ATOMIC CHARGES
-----------------------
   0 Zn:    0.742667
   1 H :    0.404603
   2 O :   -0.604054
   3 H :    0.406515
   4 H :    0.407067
   5 O :   -0.598728
   6 H :    0.404888
   7 H :    0.406198
   8 O :   -0.599433
   9 H :    0.404292
  10 H :    0.403695
  11 O :   -0.599291
  12 H :    0.406435
  13 H :    0.406300
  14 O :   -0.605609
  15 H :    0.405918
  16 H :    0.403949
  17 O :   -0.600309
  18 H :    0.404897
Sum of atomic charges:    2.0000000

--------------------------------
MULLIKEN REDUCED ORBITAL CHARGES
--------------------------------
  0 Zns       :     6.479910  s :     6.479910
      pz      :     4.219738  p :    12.658228
      px      :     4.222257
      py      :     4.216233
      dz2     :     2.016130  d :    10.119071
      dxz     :     2.037891
      dyz     :     2.021732
      dx2y2   :     2.021655
      dxy     :     2.021663
      f0      :     0.000015  f :     0.000124
      f+1     :     0.000014
      f-1     :     0.000015
      f+2     :     0.000033
      f-2     :     0.000016
      f+3     :     0.000013
      f-3     :     0.000017

  1 H s       :     0.552696  s :     0.552696
      pz      :     0.014970  p :     0.042701
      px      :     0.010504
      py      :     0.017227

  2 O s       :     3.762616  s :     3.762616
      pz      :     1.575860  p :     4.821694
      px      :     1.575081
      py      :     1.670753
      dz2     :     0.000308  d :     0.018410
      dxz     :     0.005863
      dyz     :     0.004899
      dx2y2   :     0.005797
      dxy     :     0.001542
      f0      :     0.000181  f :     0.001334
      f+1     :     0.000118
      f-1     :     0.000184
      f+2     :     0.000653
      f-2     :     0.000065
      f+3     :     0.000106
      f-3     :     0.000028

  3 H s       :     0.550869  s :     0.550869
      pz      :     0.014218  p :     0.042616
      px      :     0.016900
      py      :     0.011497

  4 H s       :     0.550316  s :     0.550316
      pz      :     0.014574  p :     0.042617
      px      :     0.016569
      py      :     0.011473

  5 O s       :     3.759810  s :     3.759810
      pz      :     1.564320  p :     4.819056
      px      :     1.585165
      py      :     1.669571
      dz2     :     0.000386  d :     0.018532
      dxz     :     0.006318
      dyz     :     0.004645
      dx2y2   :     0.005450
      dxy     :     0.001733
      f0      :     0.000164  f :     0.001330
      f+1     :     0.000163
      f-1     :     0.000166
      f+2     :     0.000630
      f-2     :     0.000079
      f+3     :     0.000101
      f-3     :     0.000026

  6 H s       :     0.552413  s :     0.552413
      pz      :     0.014679  p :     0.042699
      px      :     0.010761
      py      :     0.017260

  7 H s       :     0.551202  s :     0.551202
      pz      :     0.016798  p :     0.042600
      px      :     0.012743
      py      :     0.013060

  8 O s       :     3.761483  s :     3.761483
      pz      :     1.616893  p :     4.818087
      px      :     1.394080
      py      :     1.807115
      dz2     :     0.004653  d :     0.018533
      dxz     :     0.007455
      dyz     :     0.001515
      dx2y2   :     0.003052
      dxy     :     0.001857
      f0      :     0.000045  f :     0.001330
      f+1     :     0.000354
      f-1     :     0.000072
      f+2     :     0.000256
      f-2     :     0.000128
      f+3     :     0.000203
      f-3     :     0.000271

  9 H s       :     0.552980  s :     0.552980
      pz      :     0.011438  p :     0.042728
      px      :     0.017275
      py      :     0.014016

 10 H s       :     0.553562  s :     0.553562
      pz      :     0.014622  p :     0.042744
      px      :     0.013482
      py      :     0.014640

 11 O s       :     3.760883  s :     3.760883
      pz      :     1.816026  p :     4.818653
      px      :     1.436596
      py      :     1.566030
      dz2     :     0.002562  d :     0.018420
      dxz     :     0.001561
      dyz     :     0.003917
      dx2y2   :     0.001333
      dxy     :     0.009047
      f0      :     0.000303  f :     0.001336
      f+1     :     0.000203
      f-1     :     0.000085
      f+2     :     0.000062
      f-2     :     0.000362
      f+3     :     0.000067
      f-3     :     0.000253

 12 H s       :     0.550895  s :     0.550895
      pz      :     0.013686  p :     0.042670
      px      :     0.016444
      py      :     0.012540

 13 H s       :     0.550995  s :     0.550995
      pz      :     0.017880  p :     0.042705
      px      :     0.013909
      py      :     0.010916

 14 O s       :     3.765908  s :     3.765908
      pz      :     1.519933  p :     4.819858
      px      :     1.901541
      py      :     1.398383
      dz2     :     0.006821  d :     0.018511
      dxz     :     0.001883
      dyz     :     0.003638
      dx2y2   :     0.004152
      dxy     :     0.002017
      f0      :     0.000128  f :     0.001332
      f+1     :     0.000062
      f-1     :     0.000386
      f+2     :     0.000162
      f-2     :     0.000018
      f+3     :     0.000201
      f-3     :     0.000376

 15 H s       :     0.551392  s :     0.551392
      pz      :     0.009939  p :     0.042689
      px      :     0.014063
      py      :     0.018687

 16 H s       :     0.553394  s :     0.553394
      pz      :     0.009958  p :     0.042657
      px      :     0.014017
      py      :     0.018682

 17 O s       :     3.757969  s :     3.757969
      pz      :     1.520243  p :     4.822716
      px      :     1.906116
      py      :     1.396357
      dz2     :     0.006776  d :     0.018286
      dxz     :     0.001920
      dyz     :     0.003568
      dx2y2   :     0.004427
      dxy     :     0.001594
      f0      :     0.000129  f :     0.001338
      f+1     :     0.000069
      f-1     :     0.000376
      f+2     :     0.000161
      f-2     :     0.000022
      f+3     :     0.000157
      f-3     :     0.000425

 18 H s       :     0.552457  s :     0.552457
      pz      :     0.017827  p :     0.042645
      px      :     0.013985
      py      :     0.010834



                     *******************************
                     * LOEWDIN POPULATION ANALYSIS *
                     *******************************

----------------------
LOEWDIN ATOMIC CHARGES
----------------------
   0 Zn:    0.005244
   1 H :    0.213051
   2 O :   -0.093849
   3 H :    0.213584
   4 H :    0.212915
   5 O :   -0.093539
   6 H :    0.213555
   7 H :    0.212876
   8 O :   -0.094895
   9 H :    0.213022
  10 H :    0.213018
  11 O :   -0.092788
  12 H :    0.213548
  13 H :    0.213443
  14 O :   -0.091309
  15 H :    0.212923
  16 H :    0.212995
  17 O :   -0.097026
  18 H :    0.213233

-------------------------------
LOEWDIN REDUCED ORBITAL CHARGES
-------------------------------
  0 Zns       :     6.339189  s :     6.339189
      pz      :     4.275234  p :    12.828559
      px      :     4.279326
      py      :     4.273999
      dz2     :     2.116282  d :    10.826852
      dxz     :     2.208696
      dyz     :     2.185844
      dx2y2   :     2.209708
      dxy     :     2.106322
      f0      :     0.000019  f :     0.000156
      f+1     :     0.000017
      f-1     :     0.000020
      f+2     :     0.000042
      f-2     :     0.000020
      f+3     :     0.000016
      f-3     :     0.000022

  1 H s       :     0.633563  s :     0.633563
      pz      :     0.052282  p :     0.153386
      px      :     0.030576
      py      :     0.070528

  2 O s       :     3.374844  s :     3.374844
      pz      :     1.526948  p :     4.685621
      px      :     1.538979
      py      :     1.619694
      dz2     :     0.000627  d :     0.031108
      dxz     :     0.011083
      dyz     :     0.007808
      dx2y2   :     0.010022
      dxy     :     0.001568
      f0      :     0.000361  f :     0.002276
      f+1     :     0.000200
      f-1     :     0.000208
      f+2     :     0.000972
      f-2     :     0.000087
      f+3     :     0.000301
      f-3     :     0.000147

  3 H s       :     0.633160  s :     0.633160
      pz      :     0.052097  p :     0.153255
      px      :     0.067806
      py      :     0.033352

  4 H s       :     0.633901  s :     0.633901
      pz      :     0.054520  p :     0.153184
      px      :     0.065396
      py      :     0.033269

  5 O s       :     3.375146  s :     3.375146
      pz      :     1.517420  p :     4.684888
      px      :     1.549947
      py      :     1.617521
      dz2     :     0.000774  d :     0.031230
      dxz     :     0.011669
      dyz     :     0.007457
      dx2y2   :     0.009488
      dxy     :     0.001844
      f0      :     0.000331  f :     0.002274
      f+1     :     0.000287
      f-1     :     0.000176
      f+2     :     0.000933
      f-2     :     0.000118
      f+3     :     0.000294
      f-3     :     0.000136

  6 H s       :     0.633147  s :     0.633147
      pz      :     0.050922  p :     0.153298
      px      :     0.031620
      py      :     0.070756

  7 H s       :     0.633872  s :     0.633872
      pz      :     0.070168  p :     0.153252
      px      :     0.044274
      py      :     0.038810

  8 O s       :     3.376048  s :     3.376048
      pz      :     1.579343  p :     4.685432
      px      :     1.364641
      py      :     1.741447
      dz2     :     0.006314  d :     0.031141
      dxz     :     0.011960
      dyz     :     0.002423
      dx2y2   :     0.006643
      dxy     :     0.003801
      f0      :     0.000192  f :     0.002274
      f+1     :     0.000700
      f-1     :     0.000108
      f+2     :     0.000385
      f-2     :     0.000245
      f+3     :     0.000237
      f-3     :     0.000407

  9 H s       :     0.633598  s :     0.633598
      pz      :     0.036327  p :     0.153380
      px      :     0.073597
      py      :     0.043455

 10 H s       :     0.633680  s :     0.633680
      pz      :     0.049404  p :     0.153302
      px      :     0.047109
      py      :     0.056789

 11 O s       :     3.374442  s :     3.374442
      pz      :     1.744181  p :     4.684894
      px      :     1.402555
      py      :     1.538158
      dz2     :     0.003179  d :     0.031174
      dxz     :     0.002691
      dyz     :     0.006511
      dx2y2   :     0.003495
      dxy     :     0.015299
      f0      :     0.000422  f :     0.002278
      f+1     :     0.000198
      f-1     :     0.000104
      f+2     :     0.000089
      f-2     :     0.000563
      f+3     :     0.000285
      f-3     :     0.000619

 12 H s       :     0.633217  s :     0.633217
      pz      :     0.040845  p :     0.153235
      px      :     0.068059
      py      :     0.044331

 13 H s       :     0.633259  s :     0.633259
      pz      :     0.076242  p :     0.153298
      px      :     0.042140
      py      :     0.034917

 14 O s       :     3.373618  s :     3.373618
      pz      :     1.491282  p :     4.684161
      px      :     1.820514
      py      :     1.372364
      dz2     :     0.011308  d :     0.031252
      dxz     :     0.002734
      dyz     :     0.007680
      dx2y2   :     0.006773
      dxy     :     0.002756
      f0      :     0.000356  f :     0.002278
      f+1     :     0.000118
      f-1     :     0.000815
      f+2     :     0.000175
      f-2     :     0.000100
      f+3     :     0.000213
      f-3     :     0.000500

 15 H s       :     0.633805  s :     0.633805
      pz      :     0.029012  p :     0.153271
      px      :     0.043628
      py      :     0.080631

 16 H s       :     0.633672  s :     0.633672
      pz      :     0.029176  p :     0.153334
      px      :     0.042828
      py      :     0.081330

 17 O s       :     3.376355  s :     3.376355
      pz      :     1.491977  p :     4.687484
      px      :     1.825263
      py      :     1.370244
      dz2     :     0.011258  d :     0.030913
      dxz     :     0.002809
      dyz     :     0.007475
      dx2y2   :     0.007247
      dxy     :     0.002125
      f0      :     0.000359  f :     0.002274
      f+1     :     0.000124
      f-1     :     0.000805
      f+2     :     0.000172
      f-2     :     0.000100
      f+3     :     0.000137
      f-3     :     0.000577

 18 H s       :     0.633409  s :     0.633409
      pz      :     0.076369  p :     0.153358
      px      :     0.042484
      py      :     0.034505



                      *****************************
                      * MAYER POPULATION ANALYSIS *
                      *****************************

  NA   - Mulliken gross atomic population
  ZA   - Total nuclear charge
  QA   - Mulliken gross atomic charge
  VA   - Mayer's total valence
  BVA  - Mayer's bonded valence
  FA   - Mayer's free valence

  ATOM       NA         ZA         QA         VA         BVA        FA
  0 Zn    29.2573    30.0000     0.7427     2.0902     2.0902     0.0000
  1 H      0.5954     1.0000     0.4046     0.8502     0.8502    -0.0000
  2 O      8.6041     8.0000    -0.6041     1.9477     1.9477    -0.0000
  3 H      0.5935     1.0000     0.4065     0.8470     0.8470    -0.0000
  4 H      0.5929     1.0000     0.4071     0.8456     0.8456    -0.0000
  5 O      8.5987     8.0000    -0.5987     1.9547     1.9547     0.0000
  6 H      0.5951     1.0000     0.4049     0.8505     0.8505    -0.0000
  7 H      0.5938     1.0000     0.4062     0.8470     0.8470    -0.0000
  8 O      8.5994     8.0000    -0.5994     1.9549     1.9549     0.0000
  9 H      0.5957     1.0000     0.4043     0.8509     0.8509     0.0000
 10 H      0.5963     1.0000     0.4037     0.8518     0.8518    -0.0000
 11 O      8.5993     8.0000    -0.5993     1.9556     1.9556    -0.0000
 12 H      0.5936     1.0000     0.4064     0.8470     0.8470    -0.0000
 13 H      0.5937     1.0000     0.4063     0.8476     0.8476    -0.0000
 14 O      8.6056     8.0000    -0.6056     1.9606     1.9606    -0.0000
 15 H      0.5941     1.0000     0.4059     0.8476     0.8476    -0.0000
 16 H      0.5961     1.0000     0.4039     0.8508     0.8508     0.0000
 17 O      8.6003     8.0000    -0.6003     1.9408     1.9408    -0.0000
 18 H      0.5951     1.0000     0.4049     0.8497     0.8497    -0.0000

  Mayer bond orders larger than 0.100000
B(  0-Zn,  2-O ) :   0.3345 B(  0-Zn,  5-O ) :   0.3423 B(  0-Zn,  8-O ) :   0.3441 
B(  0-Zn, 11-O ) :   0.3438 B(  0-Zn, 14-O ) :   0.3511 B(  0-Zn, 17-O ) :   0.3239 
B(  1-H ,  2-O ) :   0.8398 B(  2-O ,  3-H ) :   0.8386 B(  4-H ,  5-O ) :   0.8379 
B(  5-O ,  6-H ) :   0.8402 B(  7-H ,  8-O ) :   0.8381 B(  8-O ,  9-H ) :   0.8402 
B( 10-H , 11-O ) :   0.8398 B( 11-O , 12-H ) :   0.8385 B( 13-H , 14-O ) :   0.8385 
B( 14-O , 15-H ) :   0.8383 B( 16-H , 17-O ) :   0.8406 B( 17-O , 18-H ) :   0.8408 


Environment variable NBOEXE for nbo6.exe or nbo5.exe not set! Skipping NBO-Analysis

-------
TIMINGS
-------

Total SCF time: 0 days 0 hours 0 min 12 sec 

Total time                  ....      12.024 sec
Sum of individual times     ....      11.842 sec  ( 98.5%)

SCF preparation             ....       0.723 sec  (  6.0%)
Fock matrix formation       ....       9.874 sec  ( 82.1%)
  Startup                   ....       0.090 sec  (  0.9% of F)
  Split-RI-J                ....       0.793 sec  (  8.0% of F)
  Chain of spheres X        ....       5.357 sec  ( 54.3% of F)
  XC integration            ....       2.210 sec  ( 22.4% of F)
    Basis function eval.    ....       0.281 sec  ( 12.7% of XC)
    Density eval.           ....       0.400 sec  ( 18.1% of XC)
    XC-Functional eval.     ....       0.149 sec  (  6.7% of XC)
    XC-Potential eval.      ....       0.484 sec  ( 21.9% of XC)
  CPCM terms                ....       1.188 sec  ( 12.0% of F)
Diagonalization             ....       0.000 sec  (  0.0%)
Density matrix formation    ....       0.274 sec  (  2.3%)
Total Energy calculation    ....       0.089 sec  (  0.7%)
Population analysis         ....       0.032 sec  (  0.3%)
Orbital Transformation      ....       0.058 sec  (  0.5%)
Orbital Orthonormalization  ....       0.000 sec  (  0.0%)
DIIS solution               ....       0.716 sec  (  6.0%)
SOSCF solution              ....       0.077 sec  (  0.6%)
Finished LeanSCF after  12.1 sec

Maximum memory used throughout the entire LEANSCF-calculation: 32.0 MB


-------------------------------------------------------------------------------
                          DFT DISPERSION CORRECTION                            
                                                                               
                              DFTD3 V3.1  Rev 1                                
                          USING Becke-Johnson damping                          
-------------------------------------------------------------------------------
The TPSSH functional is recognized
Active option DFTDOPT                   ...         4   

molecular C6(AA) [au] = 2706.074473 


            DFT-D V3
 parameters
 s6 scaling factor         :     1.0000 
 a1 scaling factor         :     0.4529 
 s8 scaling factor         :     2.2382 
 a2 scaling factor         :     4.6550 
 ad hoc parameters k1-k3   :    16.0000     1.3333    -4.0000 

 Edisp/kcal,au: -10.624036463880  -0.016930477976 
 E6   /kcal   :  -5.133897861 
 E8   /kcal   :  -5.490138603 
 % E8         :  51.676579060 

-------------------------   ----------------
Dispersion correction           -0.016930478
-------------------------   ----------------


-------------------------   --------------------
FINAL SINGLE POINT ENERGY     -2238.005243859437
-------------------------   --------------------



           ************************************************************
           *        Program running with 20 parallel MPI-processes    *
           *              working on a common directory               *
           ************************************************************
------------------------------------------------------------------------------
                         ORCA SCF GRADIENT CALCULATION
------------------------------------------------------------------------------

Nuc. rep. gradient        (SHARK) ... done (  0.0 sec)
HCore & Overlap gradient  (SHARK) ... done (  0.0 sec)
Split-RIJ-J gradient      (SHARK) ... done (  0.3 sec)
COSX-gradient                     ... done (  2.0 sec)
XC gradient                       ... done (  0.4 sec)
CPCM gradient                     ... done (  0.4 sec)
Dispersion correction             ... done (  0.0 sec)

-------------------
DISPERSION GRADIENT
-------------------

   1   Zn  :   -0.000006965    0.000009231    0.000018856
   2   H   :   -0.000204564   -0.000060969   -0.000118825
   3   O   :   -0.000331540   -0.000020268   -0.000149359
   4   H   :   -0.000235727   -0.000018998   -0.000056235
   5   H   :    0.000234043    0.000019126    0.000057706
   6   O   :    0.000331031    0.000021925    0.000157355
   7   H   :    0.000204947    0.000058456    0.000120817
   8   H   :   -0.000018714    0.000202047   -0.000133077
   9   O   :    0.000012015    0.000333053   -0.000148161
  10   H   :    0.000059560    0.000211236   -0.000110126
  11   H   :   -0.000050483   -0.000223327    0.000079673
  12   O   :   -0.000033596   -0.000317005    0.000180818
  13   H   :    0.000025013   -0.000214760    0.000111683
  14   H   :   -0.000088678    0.000069042    0.000213040
  15   O   :   -0.000170632    0.000156564    0.000282312
  16   H   :   -0.000086302    0.000141151    0.000173193
  17   H   :    0.000091941   -0.000143105   -0.000180082
  18   O   :    0.000179036   -0.000151684   -0.000280031
  19   H   :    0.000089616   -0.000071717   -0.000219558

Difference to translation invariance:
           :    0.0000000000    0.0000000000    0.0000000000

Difference to rotation invariance:
           :    0.0000000000    0.0000000000    0.0000000000

Norm of the Dispersion gradient    ...    0.0012307115
RMS gradient                       ...    0.0001630117
MAX gradient                       ...    0.0003330531

------------------
CARTESIAN GRADIENT
------------------

   1   Zn  :   -0.000403674    0.000516327    0.000868677
   2   H   :   -0.001038734   -0.001772460   -0.001292107
   3   O   :    0.004264011    0.001770016    0.000445907
   4   H   :   -0.002029829   -0.000465079    0.001082377
   5   H   :    0.001981911    0.000408421   -0.001150705
   6   O   :   -0.004154559   -0.002032289   -0.000556405
   7   H   :    0.001086905    0.001837977    0.001118745
   8   H   :   -0.000804632    0.000598219   -0.002084526
   9   O   :   -0.000375335   -0.002733852    0.003664473
  10   H   :    0.001738380    0.001078934   -0.001281361
  11   H   :   -0.001007363   -0.002076164   -0.000641228
  12   O   :   -0.000780071    0.004358866   -0.000661700
  13   H   :    0.001603273   -0.001699546    0.000275734
  14   H   :    0.000334058   -0.000172157    0.002355100
  15   O   :   -0.000017720   -0.002217302   -0.003860090
  16   H   :    0.000414314    0.002072359    0.000996342
  17   H   :   -0.000317317   -0.002199156   -0.000908265
  18   O   :   -0.000203257    0.002396715    0.004026964
  19   H   :   -0.000290362    0.000330171   -0.002397932

Difference to translation invariance:
           :   -0.0000000001   -0.0000000000    0.0000000001

Difference to rotation invariance:
           :    0.0005147564   -0.0002195035   -0.0012477491

Norm of the Cartesian gradient     ...    0.0139726987
RMS gradient                       ...    0.0018507292
MAX gradient                       ...    0.0043588663

-------
TIMINGS
-------

Total SCF gradient time     ....        3.169 sec

Densities                   ....       0.001 sec  (  0.0%)
One electron gradient       ....       0.038 sec  (  1.2%)
RI-J Coulomb gradient       ....       0.267 sec  (  8.4%)
COSX gradient               ....       1.960 sec  ( 61.8%)
XC gradient                 ....       0.422 sec  ( 13.3%)
CPCM gradient               ....       0.430 sec  ( 13.6%)
   A-Matrix (El+Nuc)        ....       0.086 sec  (  2.7%)
   Potential                ....       0.344 sec  ( 10.8%)

Maximum memory used throughout the entire SCFGRAD-calculation: 38.6 MB
------------------------------------------------------------------------------
                         ORCA GEOMETRY RELAXATION STEP
------------------------------------------------------------------------------

Reading the OPT-File                    .... done
Getting information on internals        .... done
Copying old internal coords+grads       .... done
Making the new internal coordinates     .... (2022 redundants) done
Validating the new internal coordinates .... (2022 redundants) done
Calculating the B-matrix                .... done
Calculating the G,G- and P matrices     .... done
Transforming gradient to internals      .... done
Projecting the internal gradient        .... done
Number of atoms                         ....  19
[...]
      dyz     :     2.183551
      dx2y2   :     2.206740
      dxy     :     2.105439
      f0      :     0.000018  f :     0.000148
      f+1     :     0.000015
      f-1     :     0.000019
      f+2     :     0.000040
      f-2     :     0.000019
      f+3     :     0.000015
      f-3     :     0.000021

  1 H s       :     0.634196  s :     0.634196
      pz      :     0.050554  p :     0.154425
      px      :     0.031331
      py      :     0.072540

  2 O s       :     3.373848  s :     3.373848
      pz      :     1.536368  p :     4.685905
      px      :     1.545438
      py      :     1.604099
      dz2     :     0.000724  d :     0.031037
      dxz     :     0.011329
      dyz     :     0.007174
      dx2y2   :     0.010176
      dxy     :     0.001634
      f0      :     0.000383  f :     0.002282
      f+1     :     0.000244
      f-1     :     0.000137
      f+2     :     0.000969
      f-2     :     0.000091
      f+3     :     0.000296
      f-3     :     0.000163

  3 H s       :     0.634237  s :     0.634237
      pz      :     0.054263  p :     0.154319
      px      :     0.066965
      py      :     0.033091

  4 H s       :     0.634545  s :     0.634545
      pz      :     0.054664  p :     0.154247
      px      :     0.065735
      py      :     0.033848

  5 O s       :     3.374298  s :     3.374298
      pz      :     1.508833  p :     4.685461
      px      :     1.552345
      py      :     1.624283
      dz2     :     0.000711  d :     0.031064
      dxz     :     0.011437
      dyz     :     0.007940
      dx2y2   :     0.009319
      dxy     :     0.001657
      f0      :     0.000312  f :     0.002280
      f+1     :     0.000293
      f-1     :     0.000211
      f+2     :     0.000950
      f-2     :     0.000101
      f+3     :     0.000269
      f-3     :     0.000145

  6 H s       :     0.633951  s :     0.633951
      pz      :     0.052019  p :     0.154347
      px      :     0.031658
      py      :     0.070670

  7 H s       :     0.634511  s :     0.634511
      pz      :     0.072018  p :     0.154288
      px      :     0.043576
      py      :     0.038694

  8 O s       :     3.375006  s :     3.375006
      pz      :     1.574028  p :     4.685407
      px      :     1.373105
      py      :     1.738274
      dz2     :     0.007195  d :     0.031052
      dxz     :     0.011095
      dyz     :     0.002179
      dx2y2   :     0.006700
      dxy     :     0.003882
      f0      :     0.000191  f :     0.002279
      f+1     :     0.000766
      f-1     :     0.000104
      f+2     :     0.000349
      f-2     :     0.000200
      f+3     :     0.000229
      f-3     :     0.000441

  9 H s       :     0.634238  s :     0.634238
      pz      :     0.035507  p :     0.154350
      px      :     0.074798
      py      :     0.044045

 10 H s       :     0.634077  s :     0.634077
      pz      :     0.050372  p :     0.154290
      px      :     0.045709
      py      :     0.058209

 11 O s       :     3.373762  s :     3.373762
      pz      :     1.733603  p :     4.684759
      px      :     1.409435
      py      :     1.541720
      dz2     :     0.003087  d :     0.031150
      dxz     :     0.002730
      dyz     :     0.006963
      dx2y2   :     0.004051
      dxy     :     0.014319
      f0      :     0.000437  f :     0.002284
      f+1     :     0.000185
      f-1     :     0.000092
      f+2     :     0.000104
      f-2     :     0.000583
      f+3     :     0.000289
      f-3     :     0.000594

 12 H s       :     0.634179  s :     0.634179
      pz      :     0.041088  p :     0.154264
      px      :     0.070078
      py      :     0.043097

 13 H s       :     0.635068  s :     0.635068
      pz      :     0.075544  p :     0.154431
      px      :     0.042145
      py      :     0.036742

 14 O s       :     3.373059  s :     3.373059
      pz      :     1.498817  p :     4.685869
      px      :     1.816648
      py      :     1.370403
      dz2     :     0.010598  d :     0.031140
      dxz     :     0.002542
      dyz     :     0.008591
      dx2y2   :     0.006259
      dxy     :     0.003149
      f0      :     0.000315  f :     0.002282
      f+1     :     0.000101
      f-1     :     0.000840
      f+2     :     0.000214
      f-2     :     0.000099
      f+3     :     0.000274
      f-3     :     0.000439

 15 H s       :     0.635249  s :     0.635249
      pz      :     0.029939  p :     0.154444
      px      :     0.044720
      py      :     0.079785

 16 H s       :     0.633556  s :     0.633556
      pz      :     0.029860  p :     0.154277
      px      :     0.044386
      py      :     0.080031

 17 O s       :     3.375067  s :     3.375067
      pz      :     1.498173  p :     4.686003
      px      :     1.817635
      py      :     1.370195
      dz2     :     0.010602  d :     0.030900
      dxz     :     0.002707
      dyz     :     0.008196
      dx2y2   :     0.006313
      dxy     :     0.003083
      f0      :     0.000314  f :     0.002280
      f+1     :     0.000116
      f-1     :     0.000833
      f+2     :     0.000199
      f-2     :     0.000107
      f+3     :     0.000254
      f-3     :     0.000458

 18 H s       :     0.633409  s :     0.633409
      pz      :     0.075668  p :     0.154252
      px      :     0.042328
      py      :     0.036256



                      *****************************
                      * MAYER POPULATION ANALYSIS *
                      *****************************

  NA   - Mulliken gross atomic population
  ZA   - Total nuclear charge
  QA   - Mulliken gross atomic charge
  VA   - Mayer's total valence
  BVA  - Mayer's bonded valence
  FA   - Mayer's free valence

  ATOM       NA         ZA         QA         VA         BVA        FA
  0 Zn    29.2514    30.0000     0.7486     2.0837     2.0837     0.0000
  1 H      0.5954     1.0000     0.4046     0.8503     0.8503    -0.0000
  2 O      8.6043     8.0000    -0.6043     1.9518     1.9518    -0.0000
  3 H      0.5940     1.0000     0.4060     0.8479     0.8479    -0.0000
  4 H      0.5932     1.0000     0.4068     0.8461     0.8461     0.0000
  5 O      8.6012     8.0000    -0.6012     1.9568     1.9568    -0.0000
  6 H      0.5960     1.0000     0.4040     0.8518     0.8518     0.0000
  7 H      0.5937     1.0000     0.4063     0.8471     0.8471    -0.0000
  8 O      8.5999     8.0000    -0.5999     1.9604     1.9604    -0.0000
  9 H      0.5961     1.0000     0.4039     0.8515     0.8515     0.0000
 10 H      0.5959     1.0000     0.4041     0.8514     0.8514    -0.0000
 11 O      8.5987     8.0000    -0.5987     1.9603     1.9603    -0.0000
 12 H      0.5937     1.0000     0.4063     0.8473     0.8473    -0.0000
 13 H      0.5948     1.0000     0.4052     0.8488     0.8488    -0.0000
 14 O      8.6086     8.0000    -0.6086     1.9553     1.9553     0.0000
 15 H      0.5945     1.0000     0.4055     0.8483     0.8483    -0.0000
 16 H      0.5955     1.0000     0.4045     0.8504     0.8504    -0.0000
 17 O      8.5980     8.0000    -0.5980     1.9536     1.9536    -0.0000
 18 H      0.5951     1.0000     0.4049     0.8499     0.8499    -0.0000

  Mayer bond orders larger than 0.100000
B(  0-Zn,  2-O ) :   0.3356 B(  0-Zn,  5-O ) :   0.3380 B(  0-Zn,  8-O ) :   0.3434 
B(  0-Zn, 11-O ) :   0.3451 B(  0-Zn, 14-O ) :   0.3436 B(  0-Zn, 17-O ) :   0.3298 
B(  1-H ,  2-O ) :   0.8403 B(  2-O ,  3-H ) :   0.8389 B(  4-H ,  5-O ) :   0.8386 
B(  5-O ,  6-H ) :   0.8412 B(  7-H ,  8-O ) :   0.8382 B(  8-O ,  9-H ) :   0.8410 
B( 10-H , 11-O ) :   0.8401 B( 11-O , 12-H ) :   0.8388 B( 13-H , 14-O ) :   0.8395 
B( 14-O , 15-H ) :   0.8389 B( 16-H , 17-O ) :   0.8406 B( 17-O , 18-H ) :   0.8413 


Environment variable NBOEXE for nbo6.exe or nbo5.exe not set! Skipping NBO-Analysis

-------
TIMINGS
-------

Total SCF time: 0 days 0 hours 0 min 6 sec 

Total time                  ....       6.347 sec
Sum of individual times     ....       6.198 sec  ( 97.6%)

SCF preparation             ....       0.731 sec  ( 11.5%)
Fock matrix formation       ....       5.018 sec  ( 79.1%)
  Startup                   ....       0.052 sec  (  1.0% of F)
  Split-RI-J                ....       0.331 sec  (  6.6% of F)
  Chain of spheres X        ....       3.124 sec  ( 62.3% of F)
  XC integration            ....       0.904 sec  ( 18.0% of F)
    XC Preparation          ....       0.000 sec  (  0.0% of XC)
    Basis function eval.    ....       0.137 sec  ( 15.1% of XC)
    Density eval.           ....       0.184 sec  ( 20.4% of XC)
    XC-Functional eval.     ....       0.066 sec  (  7.3% of XC)
    XC-Potential eval.      ....       0.172 sec  ( 19.0% of XC)
  CPCM terms                ....       0.503 sec  ( 10.0% of F)
Diagonalization             ....       0.000 sec  (  0.0%)
Density matrix formation    ....       0.098 sec  (  1.5%)
Total Energy calculation    ....       0.044 sec  (  0.7%)
Population analysis         ....       0.055 sec  (  0.9%)
Orbital Transformation      ....       0.029 sec  (  0.5%)
Orbital Orthonormalization  ....       0.000 sec  (  0.0%)
DIIS solution               ....       0.041 sec  (  0.7%)
SOSCF solution              ....       0.181 sec  (  2.8%)
Finished LeanSCF after   6.4 sec

Maximum memory used throughout the entire LEANSCF-calculation: 33.3 MB


-------------------------------------------------------------------------------
                          DFT DISPERSION CORRECTION                            
                                                                               
                              DFTD3 V3.1  Rev 1                                
                          USING Becke-Johnson damping                          
-------------------------------------------------------------------------------
The TPSSH functional is recognized
Active option DFTDOPT                   ...         4   

molecular C6(AA) [au] = 2705.988788 


            DFT-D V3
 parameters
 s6 scaling factor         :     1.0000 
 a1 scaling factor         :     0.4529 
 s8 scaling factor         :     2.2382 
 a2 scaling factor         :     4.6550 
 ad hoc parameters k1-k3   :    16.0000     1.3333    -4.0000 

 Edisp/kcal,au: -10.606544201356  -0.016902602285 
 E6   /kcal   :  -5.125966426 
 E8   /kcal   :  -5.480577776 
 % E8         :  51.671663002 

-------------------------   ----------------
Dispersion correction           -0.016902602
-------------------------   ----------------


-------------------------   --------------------
FINAL SINGLE POINT ENERGY     -2238.005526532967
-------------------------   --------------------

                                *** OPTIMIZATION RUN DONE ***



           ************************************************************
           *        Program running with 20 parallel MPI-processes    *
           *              working on a common directory               *
           ************************************************************

------------------------------------------------------------------------------
                              ORCA PROPERTY CALCULATIONS
------------------------------------------------------------------------------

GBWName                                 ... /home/ys/Research/PSID_server_room/orca/zinc_hydrate_2/zinc_hydrate_2.gbw
Number of atoms                         ...     19
Number of basis functions               ...    306
Max core memory                         ...   5000 MB

Electric properties:
Dipole moment                           ... YES
Quadrupole moment                       ...  NO
Static polarizability (Dipole/Dipole)   ...  NO
Static polarizability (Dipole/Quad.)    ...  NO
Static polarizability (Quad./Quad.)     ...  NO
Static polarizability (Velocity)        ...  NO

Atomic electric properties:
Dipole moment                           ...  NO
Quadrupole moment                       ...  NO
Static polarizability                   ...  NO

Choice of electric origin               ... Center of mass
Position of electric origin             ...     1.938486     1.719926     2.188275

General magnetic properties:
Magnetizability                         ...  NO

EPR properties:
g-Tensor (aka g-matrix)                 ...  NO
Zero-Field splitting spin-orbit         ...  NO
Zero-field splitting spin-spin          ...  NO
Hyperfine couplings                     ...  NO (   0 nuclei)
Quadrupole couplings                    ...  NO (   0 nuclei)
Contact density                         ...  NO (   0 nuclei)

NMR properties:
Chemical shifts                         ...  NO (   0 nuclei)
Spin-rotation constants                 ...  NO (   0 nuclei)
Spin-spin couplings                     ...  NO (   0 nuclei,    0 pairs)

Choice of magnetic origin               ... GIAO
Position of magnetic origin             ...     0.000000     0.000000     0.000000

Properties with geometric perturbations:
SCF Hessian                             ...  NO
IR spectrum                             ...  NO
VCD spectrum                            ...  NO
X-ray spectroscopy properties:
SCF XES/XAS/RIXS spectra                ...  NO


-------------
DIPOLE MOMENT
-------------

Method             : SCF
Type of density    : Electron Density
Multiplicity       :   1
Irrep              :   0
Energy             : -2237.9886239306820244 Eh
Relativity type    : 
Basis              : AO
                                X                 Y                 Z
Electronic contribution:      0.090442904      -0.057922277      -0.085379130
Nuclear contribution   :      0.386207981      -0.502565570      -0.916734246
                        -----------------------------------------
Total Dipole Moment    :      0.476650885      -0.560487847      -1.002113375
                        -----------------------------------------
Magnitude (a.u.)       :      1.243211128
Magnitude (Debye)      :      3.159991560



--------------------
Rotational spectrum 
--------------------
 
Rotational constants in cm-1:             0.050423             0.049045             0.048081 
Rotational constants in MHz :          1511.657622          1470.319100          1441.434169 

Dipole components along the rotational axes: 
x,y,z [a.u.] :     0.618824     0.880507    -0.622364 
x,y,z [Debye]:     1.572927     2.238072    -1.581924 

 

Dipole moment calculation done in   0.0 sec 

Maximum memory used throughout the entire PROP-calculation: 16.7 MB

--------------------------------
SUGGESTED CITATIONS FOR THIS RUN
--------------------------------

Below you find a list of papers that are relevant to this ORCA run
We neither can nor want to force you to cite these papers, but we appreciate if you do
You receive ORCA, which is the product of decades of hard work by many enthusiastic individuals, for free
The only thing we kindly ask in return is that you cite our papers,
We deeply appreciate it, if you show your appreciation for ORCA by not just citing the generic ORCA reference.

Please note that relegating all ORCA citations to the supporting information does *not* help us.
SI sections are not indexed - citations you put there will not count into any citation statistics
But we need these citations in order to attract the funding resources that allow us to do what we are doing

Therefore, if you are a happy ORCA user, please consider citing a few of the papers listed below in the main body of your paper

In addition to the list printed below, the program has created the file /home/ys/Research/PSID_server_room/orca/zinc_hydrate_2/zinc_hydrate_2.bibtex that contains the list in bibtex format
You can import this file easily into all common literature databanks and citation aid programs


List of essential papers. We consider these as the minimum necessary citations

  1. Neese,F.
     Software update: the ORCA program system, version 5.0
     WIRES Comput. Molec. Sci., 2022 12(1)e1606
     doi.org/10.1002/wcms.1606

List of papers to cite with high priority. The work reported in these papers was absolutely
necessary for this run to complete.
Our perspective: the developers of density functionals and basis sets usually get cited in chemistry papers
Good! But without the algorithms to do something with them, the functionals or basis sets would not do anything.
Hence, in our opinion, the algorithm design and method developments papers are equally worthy of getting cited

  1. Neese,F.
     An improvement of the resolution of the identity approximation for the formation of the Coulomb matrix
     J. Comp. Chem., 2003 24(14)1740-1747
     doi.org/10.1002/jcc.10318
  2. Neese,F.; Wennmohs,F.; Hansen,A.; Becker,U.
     Efficient, approximate and parallel Hartree-Fock and hybrid DFT calculations. A 'chain-of-spheres' algorithm for the Hartree-Fock exchange
     Chem. Phys., 2009 356(1-3)98-109
     doi.org/10.1016/j.chemphys.2008.10.036
  3. Garcia-Rates,M.; Neese,F.
     Effect of the Solute Cavity on the Solvation Energy and its Derivatives within the Framework of the Gaussian Charge Scheme
     J. Comput. Chem., 2020 41 922-939
     doi.org/10.1002/jcc.26139
  4. Helmich-Paris,B.; de Souza,B.; Neese,F.; Izsák,R.
     An improved chain of spheres for exchange algorithm
     J. Chem. Phys., 2021 155 104109
     doi.org/doi: 10.1063/5.0058766.
  5. Neese,F.
     The SHARK Integral Generation and Digestion System
     J. Comp. Chem., 2022  1-16
     doi.org/10.1002/jcc.26942
  6. Grimme,S.; Antony,J.; Ehrlich,S.; Krieg,H.
     A consistent and accurate ab initio parametrization of density functional dispersion correction (DFT-D) for the 94 elements H-Pu
     J. Chem. Phys., 2010 132 154104
     doi.org/10.1063/1.3382344
  7. Grimme,S.; Ehrlich,S.; Goerigk,L.
     Effect of the damping function in dispersion corrected density functional theory
     J. Comput. Chem., 2011 32(7)1456-1465
     doi.org/10.1002/jcc.21759

List of suggested additional citations. These are papers that are important in the 'surrounding' of 
of this run, or papers that preceded the highly important papers. If you like your results we are grateful for a citation.

  1. Izsak,R.; Neese,F.
     An overlap fitted chain of spheres exchange method
     J. Chem. Phys., 2011 135 144105
     doi.org/10.1063/1.3646921
  2. Izsak,R.; Hansen,A.; Neese,F.
     The resolution of identity and chain of spheres approximations for the LPNO-CCSD singles Fock term
     Molec. Phys., 2012 110 2413-2417
     doi.org/10.1080/00268976.2012.687466
  3. Neese,F.
     The ORCA program system
     WIRES Comput. Molec. Sci., 2012 2(1)73-78
     doi.org/10.1002/wcms.81
  4. Izsak,R.; Neese,F.; Klopper,W.
     Robust fitting techniques in the chain of spheres approximation to the Fock exchange: The role of the complementary space
     J. Chem. Phys., 2013 139 
     doi.org/10.1063/1.4819264
  5. Neese,F.
     Software update: the ORCA program system, version 4.0
     WIRES Comput. Molec. Sci., 2018 8(1)1-6
     doi.org/10.1002/wcms.1327
  6. Neese,F.; Wennmohs,F.; Becker,U.; Riplinger,C.
     The ORCA quantum chemistry program package
     J. Chem. Phys., 2020 152 Art. No. L224108
     doi.org/10.1063/5.0004608

List of optional additional citations

  1. Neese,F.
     Approximate second-order SCF convergence for spin unrestricted wavefunctions
     Chem. Phys. Lett., 2000 325(1-3)93-98
     doi.org/10.1016/s0009-2614(00)00662-x

Timings for individual modules:

Sum of individual times          ...      148.936 sec (=   2.482 min)
Startup calculation              ...       17.019 sec (=   0.284 min)  11.4 %
SCF iterations                   ...       93.890 sec (=   1.565 min)  63.0 %
Property calculations            ...        0.667 sec (=   0.011 min)   0.4 %
SCF Gradient evaluation          ...       37.249 sec (=   0.621 min)  25.0 %
Geometry relaxation              ...        0.110 sec (=   0.002 min)   0.1 %
                             ****ORCA TERMINATED NORMALLY****
TOTAL RUN TIME: 0 days 0 hours 2 minutes 39 seconds 951 msec
