# vtk DataFile Version 1.0
Cube
ASCII

DATASET POLYDATA
POINTS 156 float
10.628459 10.768160 7.614239
18.651000 6.136344 14.164616
18.651000 15.399976 1.063861
26.673541 10.768160 7.614239
14.639729 13.084068 14.164616
22.662271 17.715884 7.614239
14.639729 3.820435 7.614239
22.662271 8.452252 1.063861
14.639729 17.715884 7.614239
14.639729 8.452252 1.063861
22.662271 13.084068 14.164616
22.662271 3.820435 7.614239
25.973383 11.709297 11.765522
25.130357 17.795461 15.036599
30.822643 20.108462 11.765522
29.979617 14.995739 7.117790
30.822643 17.795461 15.036599
25.130357 20.108462 11.765522
25.973383 14.995739 7.117790
29.979617 11.709297 11.765522
27.976500 18.465241 7.117790
23.127240 16.638961 11.765522
27.976500 12.865797 15.036599
32.825760 16.638961 11.765522
14.174760 4.897359 3.462956
9.325500 8.670522 0.191879
4.476240 4.897359 3.462956
9.325500 3.071079 8.110687
6.479357 3.740859 0.191879
7.322383 9.827023 3.462956
11.328617 6.540580 8.110687
12.171643 1.427858 3.462956
7.322383 6.540580 8.110687
11.328617 9.827023 3.462956
12.171643 3.740859 0.191879
6.479357 1.427858 3.462956
27.976500 11.235067 10.110796
27.976500 11.626598 11.544404
26.207639 20.048160 14.176190
25.263153 19.111330 13.513751
29.745361 20.048160 14.176190
30.689847 19.111330 13.513751
27.976500 13.277572 7.222258
27.976500 14.759701 7.113527
32.234896 15.736158 14.176190
31.895821 17.022522 13.513751
23.718104 18.610826 10.110796
24.057179 18.415061 11.544404
25.486965 17.589574 7.222258
26.770526 16.848509 7.113527
30.466035 12.672401 14.176190
29.182474 12.322867 13.513751
30.466035 17.589574 7.222258
29.182474 16.848509 7.113527
23.718104 15.736158 14.176190
24.057179 17.022522 13.513751
25.486965 12.672401 14.176190
26.770526 12.322867 13.513751
32.234896 18.610826 10.110796
31.895821 18.415061 11.544404
13.583896 2.925494 5.117682
13.244821 3.121259 3.684073
6.835965 8.863918 1.052288
8.119526 9.213453 1.714727
5.067104 5.800162 1.052288
5.406179 4.513797 1.714727
11.815035 3.946746 8.006220
10.531474 4.687811 8.114951
7.556639 1.488160 1.052288
6.612153 2.424990 1.714727
9.325500 10.301252 5.117682
9.325500 9.909722 3.684073
9.325500 8.258748 8.006220
9.325500 6.776618 8.114951
11.094361 1.488160 1.052288
12.038847 2.424990 1.714727
6.835965 3.946746 8.006220
8.119526 4.687811 8.114951
11.815035 8.863918 1.052288
10.531474 9.213453 1.714727
13.583896 5.800162 1.052288
13.244821 4.513797 1.714727
5.067104 2.925494 5.117682
5.406179 3.121259 3.684073
26.780225 11.861990 12.205625
24.859172 17.952030 14.159134
31.093828 19.333370 12.205625
29.172775 15.461570 7.115049
31.093828 17.952030 14.159134
24.859172 19.333370 12.205625
26.780225 15.461570 7.115049
29.172775 11.861990 12.205625
27.976500 17.533579 7.115049
23.662897 17.261360 12.205625
27.976500 12.552659 14.159134
32.290103 17.261360 12.205625
13.639103 4.274959 3.022853
9.325500 8.983660 1.069344
5.011897 4.274959 3.022853
9.325500 4.002740 8.113428
6.208172 3.584290 1.069344
8.129225 9.674330 3.022853
10.521775 6.074750 8.113428
12.442828 2.202950 3.022853
8.129225 6.074750 8.113428
10.521775 9.674330 3.022853
12.442828 3.584290 1.069344
6.208172 2.202950 3.022853
10.444000 11.104665 9.540032
17.272878 4.897682 13.514665
20.029122 14.374309 0.112691
26.858000 12.695984 7.289568
14.256078 14.896888 13.514665
23.045922 17.707377 9.540032
16.217045 2.696778 7.289568
21.084956 7.771596 0.112691
12.877956 16.911718 7.289568
14.838922 10.158574 0.112691
24.424044 12.509910 13.514665
22.463078 3.492437 9.540032
22.463078 18.043882 5.688446
24.424044 9.026410 1.713813
14.838922 11.377745 15.115787
12.877956 4.624602 7.938910
17.272878 16.638638 1.713813
10.444000 10.431655 5.688446
26.858000 8.840336 7.938910
20.029122 7.162011 15.115787
16.217045 18.839542 7.938910
21.084955 13.764723 15.115787
14.256078 6.639432 1.713813
23.045922 3.828942 5.688446
26.858000 10.431655 5.688446
20.029122 16.638638 1.713813
17.272878 7.162011 15.115787
10.444000 8.840336 7.938910
23.045922 6.639432 1.713813
14.256078 3.828942 5.688446
21.084956 18.839542 7.938910
16.217045 13.764723 15.115787
24.424044 4.624602 7.938910
22.463078 11.377745 15.115787
12.877956 9.026410 1.713813
14.838922 18.043882 5.688446
14.838922 3.492437 9.540032
12.877956 12.509910 13.514665
22.463078 10.158574 0.112691
24.424044 16.911718 7.289568
20.029122 4.897682 13.514665
26.858000 11.104665 9.540032
10.444000 12.695984 7.289568
17.272878 14.374309 0.112691
21.084956 2.696778 7.289568
16.217045 7.771596 0.112691
23.045922 14.896888 13.514665
14.256078 17.707377 9.540032
POINT_DATA 156
SCALARS my_scalars float
LOOKUP_TABLE default
1.4
1.4
1.4
1.4
1.4
1.4
1.4
1.4
1.4
1.4
1.4
1.4
1.09
1.09
1.09
1.09
1.09
1.09
1.09
1.09
1.09
1.09
1.09
1.09
1.09
1.09
1.09
1.09
1.09
1.09
1.09
1.09
1.09
1.09
1.09
1.09
1.7
1.7
1.7
1.7
1.7
1.7
1.7
1.7
1.7
1.7
1.7
1.7
1.7
1.7
1.7
1.7
1.7
1.7
1.7
1.7
1.7
1.7
1.7
1.7
1.7
1.7
1.7
1.7
1.7
1.7
1.7
1.7
1.7
1.7
1.7
1.7
1.7
1.7
1.7
1.7
1.7
1.7
1.7
1.7
1.7
1.7
1.7
1.7
1.7
1.7
1.7
1.7
1.7
1.7
1.7
1.7
1.7
1.7
1.7
1.7
1.7
1.7
1.7
1.7
1.7
1.7
1.7
1.7
1.7
1.7
1.7
1.7
1.52
1.52
1.52
1.52
1.52
1.52
1.52
1.52
1.52
1.52
1.52
1.52
1.52
1.52
1.52
1.52
1.52
1.52
1.52
1.52
1.52
1.52
1.52
1.52
1.52
1.52
1.52
1.52
1.52
1.52
1.52
1.52
1.52
1.52
1.52
1.52
1.52
1.52
1.52
1.52
1.52
1.52
1.52
1.52
1.52
1.52
1.52
1.52
VECTORS vectors float
0.4375 0 0
0.4375 0 0
0.4375 0 0
0.4375 0 0
0.4375 0 0
0.4375 0 0
0.4375 0 0
0.4375 0 0
0.4375 0 0
0.4375 0 0
0.4375 0 0
0.4375 0 0
0.25 0 0
0.25 0 0
0.25 0 0
0.25 0 0
0.25 0 0
0.25 0 0
0.25 0 0
0.25 0 0
0.25 0 0
0.25 0 0
0.25 0 0
0.25 0 0
0.25 0 0
0.25 0 0
0.25 0 0
0.25 0 0
0.25 0 0
0.25 0 0
0.25 0 0
0.25 0 0
0.25 0 0
0.25 0 0
0.25 0 0
0.25 0 0
0.3125 0 0
0.3125 0 0
0.3125 0 0
0.3125 0 0
0.3125 0 0
0.3125 0 0
0.3125 0 0
0.3125 0 0
0.3125 0 0
0.3125 0 0
0.3125 0 0
0.3125 0 0
0.3125 0 0
0.3125 0 0
0.3125 0 0
0.3125 0 0
0.3125 0 0
0.3125 0 0
0.3125 0 0
0.3125 0 0
0.3125 0 0
0.3125 0 0
0.3125 0 0
0.3125 0 0
0.3125 0 0
0.3125 0 0
0.3125 0 0
0.3125 0 0
0.3125 0 0
0.3125 0 0
0.3125 0 0
0.3125 0 0
0.3125 0 0
0.3125 0 0
0.3125 0 0
0.3125 0 0
0.3125 0 0
0.3125 0 0
0.3125 0 0
0.3125 0 0
0.3125 0 0
0.3125 0 0
0.3125 0 0
0.3125 0 0
0.3125 0 0
0.3125 0 0
0.3125 0 0
0.3125 0 0
0.3125 0 0
0.3125 0 0
0.3125 0 0
0.3125 0 0
0.3125 0 0
0.3125 0 0
0.3125 0 0
0.3125 0 0
0.3125 0 0
0.3125 0 0
0.3125 0 0
0.3125 0 0
0.3125 0 0
0.3125 0 0
0.3125 0 0
0.3125 0 0
0.3125 0 0
0.3125 0 0
0.3125 0 0
0.3125 0 0
0.3125 0 0
0.3125 0 0
0.3125 0 0
0.3125 0 0
0.03125 0 0
0.03125 0 0
0.03125 0 0
0.03125 0 0
0.03125 0 0
0.03125 0 0
0.03125 0 0
0.03125 0 0
0.03125 0 0
0.03125 0 0
0.03125 0 0
0.03125 0 0
0.03125 0 0
0.03125 0 0
0.03125 0 0
0.03125 0 0
0.03125 0 0
0.03125 0 0
0.03125 0 0
0.03125 0 0
0.03125 0 0
0.03125 0 0
0.03125 0 0
0.03125 0 0
0.03125 0 0
0.03125 0 0
0.03125 0 0
0.03125 0 0
0.03125 0 0
0.03125 0 0
0.03125 0 0
0.03125 0 0
0.03125 0 0
0.03125 0 0
0.03125 0 0
0.03125 0 0
0.03125 0 0
0.03125 0 0
0.03125 0 0
0.03125 0 0
0.03125 0 0
0.03125 0 0
0.03125 0 0
0.03125 0 0
0.03125 0 0
0.03125 0 0
0.03125 0 0
0.03125 0 0
