
                                 *****************
                                 * O   R   C   A *
                                 *****************

                                            #,                                       
                                            ###                                      
                                            ####                                     
                                            #####                                    
                                            ######                                   
                                           ########,                                 
                                     ,,################,,,,,                         
                               ,,#################################,,                 
                          ,,##########################################,,             
                       ,#########################################, ''#####,          
                    ,#############################################,,   '####,        
                  ,##################################################,,,,####,       
                ,###########''''           ''''###############################       
              ,#####''   ,,,,##########,,,,          '''####'''          '####       
            ,##' ,,,,###########################,,,                        '##       
           ' ,,###''''                  '''############,,,                           
         ,,##''                                '''############,,,,        ,,,,,,###''
      ,#''                                            '''#######################'''  
     '                                                          ''''####''''         
             ,#######,   #######,   ,#######,      ##                                
            ,#'     '#,  ##    ##  ,#'     '#,    #''#        ,####,   ,####,        
            ##       ##  ##   ,#'  ##            #'  '#       #'       #'  '#        
            ##       ##  #######   ##           ,######,      #####,   #    #        
            '#,     ,#'  ##    ##  '#,     ,#' ,#      #,     #,   #   #,  ,#        
             '#######'   ##     ##  '#######'  #'      '#     '####' # '####'        



                #########################################################
                #                        -***-                          #
                #          Department of theory and spectroscopy        #
                #                                                       #
                #                      Frank Neese                      #
                #                                                       #
                #     Directorship, Architecture, Infrastructure        #
                #                    SHARK, DRIVERS                     #
                #        Core code/Algorithms in most modules           #
                #                                                       #
                #        Max Planck Institute fuer Kohlenforschung      #
                #                Kaiser Wilhelm Platz 1                 #
                #                 D-45470 Muelheim/Ruhr                 #
                #                      Germany                          #
                #                                                       #
                #                  All rights reserved                  #
                #                        -***-                          #
                #########################################################


                         Program Version 6.0.1  -  RELEASE   -


 With contributions from (in alphabetic order):
[Max-Planck-Institut fuer Kohlenforschung]                               
  Daniel Aravena         : Magnetic Suceptibility                        
  Michael Atanasov       : Ab Initio Ligand Field Theory (pilot matlab implementation)
  Alexander A. Auer      : GIAO ZORA, VPT2 properties, NMR spectrum      
  Ute Becker             : All parallelization in ORCA, NUMFREQ, NUMCALC 
  Giovanni Bistoni       : ED, misc. LED, open-shell LED, HFLD           
  Martin Brehm           : Molecular dynamics                            
  Dmytro Bykov           : pre 5.0 version of the SCF Hessian            
  Marcos Casanova-Páez   : Triplet and SCS-CIS(D). UHF-(DLPNO)-IP/EA/STEOM-CCSD. UHF-CVS-IP/STEOM-CCSD   
  Vijay G. Chilkuri      : MRCI spin determinant printing, contributions to CSF-ICE 
  Pauline Colinet        : FMM embedding                                 
  Dipayan Datta          : RHF DLPNO-CCSD density                        
  Achintya Kumar Dutta   : EOM-CC, STEOM-CC                              
  Nicolas Foglia         : Exact transition moments, OPA infrastructure, MCD improvements    
  Dmitry Ganyushin       : Spin-Orbit,Spin-Spin,Magnetic field MRCI      
  Miquel Garcia-Rates    : C-PCM and meta-GGA Hessian, CCSD/C-PCM, Gaussian charge scheme 
  Tiago L. C. Gouveia    : GS-ROHF, GS-ROCIS                             
  Yang Guo               : DLPNO-NEVPT2, F12-NEVPT2, CIM, IAO-localization        
  Andreas Hansen         : Spin unrestricted coupled pair/coupled cluster methods 
  Ingolf Harden          : AUTO-CI MPn and infrastructure                
  Benjamin Helmich-Paris : MC-RPA, TRAH-(SCF,CASSCF), AVAS, COSX integrals, SCF dyn. polar. 
  Lee Huntington         : MR-EOM, pCC                                   
  Robert Izsak           : Overlap fitted RIJCOSX, COSX-SCS-MP3, EOM     
  Riya Kayal             : Wick's Theorem for AUTO-CI, AUTO-CI UHF-CCSDT 
  Emily Kempfer          : AUTO-CI, RHF CISDT and CCSDT                  
  Christian Kollmar      : KDIIS, OOCD, Brueckner-CCSD(T), CCSD density, CASPT2, CASPT2-K, improved NEVPT2 
  Axel Koslowski         : Symmetry handling                             
  Simone Kossmann        : meta-GGA functionals, TD-DFT gradient, OOMP2, (MP2 Hessian; deprecated post 5.0) 
  Lucas Lang             : DCDCAS                                        
  Marvin Lechner         : AUTO-CI (C++ implementation), FIC-MRCC        
  Spencer Leger          : CASSCF response                               
  Dagmar Lenk            : GEPOL surface, SMD, ORCA-2-JSON               
  Dimitrios Liakos       : Extrapolation schemes; Compound Job, initial MDCI parallelization 
  Dimitrios Manganas     : Further ROCIS development; embedding schemes. LFT, Crystal Embedding 
  Dimitrios Pantazis     : SARC Basis sets                               
  Anastasios Papadopoulos: AUTO-CI, single reference methods and gradients 
  Taras Petrenko         : pre 6.0 DFT Hessian and TD-DFT gradient, (ASA, deprecated), ECA, 1-Electron XAS/XES, NRVS 
  Peter Pinski           : DLPNO-MP2, DLPNO-MP2 Gradient                 
  Christoph Reimann      : Effective Core Potentials                     
  Marius Retegan         : Local ZFS, SOC                                
  Christoph Riplinger    : Optimizer, TS searches, QM/MM, DLPNO-CCSD(T), (RO)-DLPNO pert. Triples 
  Michael Roemelt        : Original ROCIS implementation                 
  Masaaki Saitow         : Open-shell DLPNO-CCSD energy and density      
  Barbara Sandhoefer     : DKH picture change effects                    
  Kantharuban Sivalingam : CASSCF convergence/infrastructure, NEVPT2 and variants, FIC-MRCI 
  Bernardo de Souza      : ESD, SOC TD-DFT                               
  Georgi L. Stoychev     : AutoAux, RI-MP2 NMR, DLPNO-MP2 response, X2C  
  Van Anh Tran           : RI-MP2 g-tensors                              
  Willem Van den Heuvel  : Paramagnetic NMR                              
  Zikuan Wang            : NOTCH, Electric field optimization            
  Frank Wennmohs         : Technical directorship and infrastructure     
  Hang Xu                : AUTO-CI-Response properties                   
                                                                         
[FACCTs GmbH]                                                            
  Markus Bursch, Miquel Garcia-Rates, Christoph Riplinger, Bernardo de Souza, Georgi L. Stoychev 
                                                                 
  APM, Basis sets (HGBS, AHGBS, def-TZVP (Ac-Lr), def2-XVPD (La-Lu)), CI-OPT, improved COSX, DLPNO-Multilevel,           
  DOCKER, DRACO, updates on ESD, GOAT, IRC, LR-CPCM, MBIS, meta-GGA TD-DFT gradient, ML-optimized integration grids, 
  MM, NACMEs, nearIR, NEB, NEB-TS, NL-DFT gradient (VV10), 2- and 3-layer-ONIOM, interface openCOSMO-RS, QMMM,   
  Crystal-QMMM, SF, symmetry and pop. for TD-DFT, r2SCAN hybrids, SOLVATOR                                   
                                                                         
[Other institutions]                                                     
  V. Asgeirsson          : NEB                                           
  Christoph Bannwarth    : sTDA-DFT, sTD-DFT, PBEh-3c, B97-3c, D3        
  Sebastian Ehlert       : rSCAN, r2SCAN, r2SCAN-3c, D4, dhf basis sets  
  Marvin Friede          : D4 for Fr, Ra, Ac-Lr                          
  Lars Goerigk           : TD-DFT with DH, B97 family of functionals     
  Stefan Grimme          : VdW corrections, initial TS optimization, DFT functionals, gCP, sTDA/sTD-DF 
  Waldemar Hujo          : DFT-NL                                        
  H. Jonsson             : NEB                                           
  Holger Kruse           : gCP                                           
  Marcel Mueller         : wB97X-3c, vDZP basis set                      
  Hagen Neugebauer       : wr2SCAN                                       
  Tobias Risthaus        : range-separated hybrid DFT                    
  Lukas Wittmann         : regularized MP2, r2SCAN double-hybrids, wr2SCAN        
                                                                         
We gratefully acknowledge several colleagues who have allowed us to      
interface, adapt or use parts of their codes:                            
  Ed Valeev, F. Pavosevic, A. Kumar             : LibInt (2-el integral package), F12 methods 
  Garnet Chan, S. Sharma, J. Yang, R. Olivares  : DMRG                   
  Ulf Ekstrom                                   : XCFun DFT Library      
  Mihaly Kallay                                 : mrcc  (arbitrary order and MRCC methods)
  Frank Weinhold                                : gennbo (NPA and NBO analysis)           
  Simon Mueller                                 : openCOSMO-RS                            
  Christopher J. Cramer and Donald G. Truhlar   : smd solvation model                     
  S Lehtola, MJT Oliveira, MAL Marques          : LibXC Library                           
  Liviu Ungur et al                             : ANISO software                          


 Your calculation uses the libint2 library for the computation of 2-el integrals
 For citations please refer to: http://libint.valeyev.net

 Your ORCA version has been built with support for libXC version: 6.2.2
 For citations please refer to: https://libxc.gitlab.io

 This ORCA versions uses:
   CBLAS   interface :  Fast vector & matrix operations
   LAPACKE interface :  Fast linear algebra routines
   SCALAPACK package :  Parallel linear algebra routines
   Shared memory     :  Shared parallel matrices
   BLAS/LAPACK       :  OpenBLAS 0.3.27  USE64BITINT DYNAMIC_ARCH NO_AFFINITY SkylakeX SINGLE_THREADED
        Core in use  :  SkylakeX
   Copyright (c) 2011-2014, The OpenBLAS Project


NOTE: MaxCore=5000 MB was set to SCF,MP2,MDCI,CIPSI,MRCI and CIS
      => If you want to overwrite this, your respective input block should be placed after the MaxCore statement
Your calculation utilizes the atom-pairwise dispersion correction
with the Becke-Johnson damping scheme (D3BJ)


Warning: RI is on but no J-basis has been assigned. Assigning Def2/J (nothing to worry about!)
================================================================================

----- Orbital basis set information -----
Your calculation utilizes the basis: def2-SVP
   F. Weigend and R. Ahlrichs, Phys. Chem. Chem. Phys. 7, 3297 (2005).

----- AuxJ basis set information -----
Your calculation utilizes the auxiliary basis: def2/J
   F. Weigend, Phys. Chem. Chem. Phys. 8, 1057 (2006).

================================================================================
                                        WARNINGS
                       Please study these warnings very carefully!
================================================================================

WARNING: Old DensityContainer found on disk!
         Will remove this file - 
         If you want to keep old densities, please start your calculation with a different basename. 


WARNING: Geometry Optimization
  ===> : Switching off AutoStart
         For restart on a previous wavefunction, please use MOREAD

================================================================================
                                       INPUT FILE
================================================================================
NAME = aninline_water_2.inp
|  1> ! B3LYP def2-SVP OPT TightSCF D3BJ
|  2> 
|  3> %maxcore 5000
|  4> 
|  5> %pal
|  6> nprocs 20
|  7> end
|  8> 
|  9> * xyz 0 1
| 10> N         -2.38668        3.47447        0.00255
| 11> C         -1.01196        3.47459        0.00106
| 12> C         -0.28642        4.68472        0.00067
| 13> C         -0.28621        2.26457        0.00070
| 14> C          1.10730        4.67756        0.00003
| 15> C          1.10750        2.27198        0.00006
| 16> C          1.82096        3.47483       -0.00028
| 17> H         -0.82888        5.63470        0.00096
| 18> H         -0.82851        1.31450        0.00101
| 19> H          1.64366        5.63051       -0.00027
| 20> H          1.64403        1.31911       -0.00021
| 21> H          2.91288        3.47493       -0.00081
| 22> H         -2.90419        2.60891       -0.00324
| 23> H         -2.90433        4.33994       -0.00327
| 24> O         -2.41048        3.58652       -1.27758
| 25> H         -2.25003        2.82686       -1.85382
| 26> H         -2.18363        4.33965       -1.83987
| 27> *
| 28> 
| 29>                          ****END OF INPUT****
================================================================================

                       *****************************
                       * Geometry Optimization Run *
                       *****************************

Geometry optimization settings:
Update method            Update   .... BFGS
Choice of coordinates    CoordSys .... (2022) Redundant Internals
Initial Hessian          InHess   .... Almloef's Model
Max. no of cycles        MaxIter  .... 51

Convergence Tolerances:
Energy Change            TolE     ....  5.0000e-06 Eh
Max. Gradient            TolMAXG  ....  3.0000e-04 Eh/bohr
RMS Gradient             TolRMSG  ....  1.0000e-04 Eh/bohr
Max. Displacement        TolMAXD  ....  4.0000e-03 bohr
RMS Displacement         TolRMSD  ....  2.0000e-03 bohr
Strict Convergence                .... False

------------------------------------------------------------------------------
                        ORCA OPTIMIZATION COORDINATE SETUP
------------------------------------------------------------------------------

The optimization will be done in redundant internal coordinates (2022)
Making redundant internal coordinates   ...  (2022 redundants) done
Evaluating the initial hessian          ...  (Almloef) done
Evaluating the coordinates              ...  done
Calculating the B-matrix                .... done
Calculating the G-matrix                .... done
Diagonalizing the G-matrix              .... done
The first mode is                       ....   50
The number of degrees of freedom        ....   45

    -----------------------------------------------------------------
                    Redundant Internal Coordinates


    -----------------------------------------------------------------
         Definition                    Initial Value    Approx d2E/dq
    -----------------------------------------------------------------
      1. B(C   1,N   0)                  1.3747         0.591906   
      2. B(C   2,C   1)                  1.4110         0.578482   
      3. B(C   3,C   1)                  1.4110         0.578453   
      4. B(C   4,C   2)                  1.3937         0.616274   
      5. B(C   5,C   3)                  1.3937         0.616294   
      6. B(C   6,C   5)                  1.3985         0.605532   
      7. B(C   6,C   4)                  1.3985         0.605534   
      8. B(H   7,C   2)                  1.0939         0.354913   
      9. B(H   8,C   3)                  1.0939         0.354915   
     10. B(H   9,C   4)                  1.0935         0.355468   
     11. B(H  10,C   5)                  1.0935         0.355450   
     12. B(H  11,C   6)                  1.0919         0.357569   
     13. B(H  12,N   0)                  1.0085         0.435121   
     14. B(H  13,N   0)                  1.0085         0.435130   
     15. B(O  14,N   0)                  1.2852         0.736449   
     16. B(O  14,C   1)                  1.8982         0.086500   
     17. B(H  15,O  14)                  0.9669         0.506957   
     18. B(H  16,O  14)                  0.9669         0.507000   
     19. A(C   1,N   0,H  12)          120.8788         0.356189   
     20. A(H  13,N   0,O  14)           84.8323         0.367380   
     21. A(C   1,N   0,O  14)           90.9988         0.435279   
     22. A(H  12,N   0,H  13)          118.2378         0.303798   
     23. A(C   1,N   0,H  13)          120.8782         0.356190   
     24. A(H  12,N   0,O  14)           93.4171         0.367378   
     25. A(C   2,C   1,C   3)          118.1003         0.423404   
     26. A(N   0,C   1,C   2)          120.9500         0.422382   
     27. A(N   0,C   1,O  14)           42.6073         0.304062   
     28. A(N   0,C   1,C   3)          120.9496         0.422378   
     29. A(C   2,C   1,O  14)          109.1528         0.304723   
     30. A(C   3,C   1,O  14)          115.4262         0.304721   
     31. A(C   4,C   2,H   7)          120.0217         0.351685   
     32. A(C   1,C   2,H   7)          119.3276         0.347949   
     33. A(C   1,C   2,C   4)          120.6507         0.428232   
     34. A(C   5,C   3,H   8)          120.0224         0.351687   
     35. A(C   1,C   3,H   8)          119.3276         0.347947   
     36. A(C   1,C   3,C   5)          120.6500         0.428230   
     37. A(C   6,C   4,H   9)          119.9439         0.350734   
     38. A(C   2,C   4,H   9)          119.0783         0.351778   
     39. A(C   2,C   4,C   6)          120.9778         0.431759   
     40. A(C   3,C   5,H  10)          119.0778         0.351777   
     41. A(C   3,C   5,C   6)          120.9786         0.431761   
     42. A(C   6,C   5,H  10)          119.9436         0.350731   
     43. A(C   5,C   6,H  11)          120.6792         0.351083   
     44. A(C   4,C   6,H  11)          120.6782         0.351084   
     45. A(C   4,C   6,C   5)          118.6426         0.430398   
     46. A(N   0,O  14,H  16)          130.0015         0.377180   
     47. A(C   1,O  14,H  15)          103.4653         0.267975   
     48. A(N   0,O  14,H  15)          121.4685         0.377174   
     49. A(N   0,O  14,C   1)           46.3939         0.313068   
     50. A(H  15,O  14,H  16)          103.0889         0.319185   
     51. A(C   1,O  14,H  16)          105.3554         0.267979   
     52. D(C   3,C   1,N   0,H  13)   -179.5978         0.032930   
     53. D(C   2,C   1,N   0,H  13)      0.4412         0.032930   
     54. D(C   2,C   1,N   0,H  12)    179.5984         0.032930   
     55. D(C   3,C   1,N   0,H  12)     -0.4406         0.032930   
     56. D(C   3,C   1,N   0,O  14)    -95.0225         0.032930   
     57. D(C   2,C   1,N   0,O  14)     85.0164         0.032930   
     58. D(C   4,C   2,C   1,N   0)    179.9583         0.024959   
     59. D(C   4,C   2,C   1,O  14)   -134.4863         0.024959   
     60. D(H   7,C   2,C   1,N   0)     -0.0366         0.024959   
     61. D(H   7,C   2,C   1,C   3)   -179.9987         0.024959   
     62. D(C   4,C   2,C   1,C   3)     -0.0038         0.024959   
     63. D(C   5,C   3,C   1,O  14)    131.7368         0.024956   
     64. D(C   5,C   3,C   1,C   2)      0.0038         0.024956   
     65. D(C   5,C   3,C   1,N   0)   -179.9583         0.024956   
     66. D(H   8,C   3,C   1,N   0)      0.0368         0.024956   
     67. D(H   8,C   3,C   1,C   2)    179.9989         0.024956   
     68. D(H   9,C   4,C   2,H   7)     -0.0057         0.026262   
     69. D(H   9,C   4,C   2,C   1)    179.9995         0.026262   
     70. D(C   6,C   4,C   2,H   7)    179.9967         0.026262   
     71. D(C   6,C   4,C   2,C   1)      0.0018         0.026262   
     72. D(H  10,C   5,C   3,H   8)      0.0051         0.026263   
     73. D(H  10,C   5,C   3,C   1)   -179.9998         0.026263   
     74. D(C   6,C   5,C   3,H   8)   -179.9969         0.026263   
     75. D(C   6,C   5,C   3,C   1)     -0.0019         0.026263   
     76. D(C   4,C   6,C   5,H  10)    179.9977         0.025303   
     77. D(C   4,C   6,C   5,C   3)     -0.0002         0.025303   
     78. D(H  11,C   6,C   4,H   9)      0.0007         0.025303   
     79. D(H  11,C   6,C   4,C   2)    179.9983         0.025303   
     80. D(C   5,C   6,C   4,H   9)   -179.9974         0.025303   
     81. D(H  11,C   6,C   5,C   3)   -179.9983         0.025303   
     82. D(C   5,C   6,C   4,C   2)      0.0003         0.025303   
     83. D(H  11,C   6,C   5,H  10)     -0.0003         0.025303   
     84. D(H  16,O  14,C   1,N   0)    131.2264         0.002016   
     85. D(H  15,O  14,C   1,C   2)    123.8668         0.002016   
     86. D(H  15,O  14,C   1,N   0)   -120.8808         0.002016   
     87. D(N   0,O  14,C   1,C   3)    108.9235         0.002016   
     88. D(N   0,O  14,C   1,C   2)   -115.2524         0.002016   
     89. D(H  16,O  14,N   0,C   1)    -71.2238         0.062910   
     90. D(H  15,O  14,N   0,H  13)   -160.9662         0.062910   
     91. D(H  15,O  14,N   0,H  12)    -42.8989         0.062910   
     92. D(H  15,O  14,N   0,C   1)     78.1158         0.062910   
     93. D(H  15,O  14,C   1,C   3)    -11.9573         0.002016   
     94. D(C   1,O  14,N   0,H  13)    120.9181         0.062910   
     95. D(C   1,O  14,N   0,H  12)   -121.0146         0.062910   
    -----------------------------------------------------------------

Number of atoms                         .... 17
Number of degrees of freedom            .... 95


         *************************************************************
         *                GEOMETRY OPTIMIZATION CYCLE   1            *
         *************************************************************
---------------------------------
CARTESIAN COORDINATES (ANGSTROEM)
---------------------------------
  N     -2.386680    3.474470    0.002550
  C     -1.011960    3.474590    0.001060
  C     -0.286420    4.684720    0.000670
  C     -0.286210    2.264570    0.000700
  C      1.107300    4.677560    0.000030
  C      1.107500    2.271980    0.000060
  C      1.820960    3.474830   -0.000280
  H     -0.828880    5.634700    0.000960
  H     -0.828510    1.314500    0.001010
  H      1.643660    5.630510   -0.000270
  H      1.644030    1.319110   -0.000210
  H      2.912880    3.474930   -0.000810
  H     -2.904190    2.608910   -0.003240
  H     -2.904330    4.339940   -0.003270
  O     -2.410480    3.586520   -1.277580
  H     -2.250030    2.826860   -1.853820
  H     -2.183630    4.339650   -1.839870

----------------------------
CARTESIAN COORDINATES (A.U.)
----------------------------
  NO LB      ZA    FRAG     MASS         X           Y           Z
   0 N     7.0000    0    14.007   -4.510172    6.565797    0.004819
   1 C     6.0000    0    12.011   -1.912327    6.566024    0.002003
   2 C     6.0000    0    12.011   -0.541255    8.852838    0.001266
   3 C     6.0000    0    12.011   -0.540859    4.279417    0.001323
   4 C     6.0000    0    12.011    2.092494    8.839307    0.000057
   5 C     6.0000    0    12.011    2.092872    4.293420    0.000113
   6 C     6.0000    0    12.011    3.441116    6.566477   -0.000529
   7 H     1.0000    0     1.008   -1.566356   10.648040    0.001814
   8 H     1.0000    0     1.008   -1.565657    2.484045    0.001909
   9 H     1.0000    0     1.008    3.106067   10.640122   -0.000510
  10 H     1.0000    0     1.008    3.106766    2.492757   -0.000397
  11 H     1.0000    0     1.008    5.504545    6.566666   -0.001531
  12 H     1.0000    0     1.008   -5.488124    4.930125   -0.006123
  13 H     1.0000    0     1.008   -5.488388    8.201298   -0.006179
  14 O     8.0000    0    15.999   -4.555147    6.777541   -2.414276
  15 H     1.0000    0     1.008   -4.251940    5.341991   -3.503212
  16 H     1.0000    0     1.008   -4.126463    8.200750   -3.476850

--------------------------------
INTERNAL COORDINATES (ANGSTROEM)
--------------------------------
 N      0   0   0     0.000000000000     0.00000000     0.00000000
 C      1   0   0     1.374720812711     0.00000000     0.00000000
 C      2   1   0     1.410965293903   120.95002292     0.00000000
 C      2   1   3     1.410978948284   120.94962941   179.96103228
 C      3   2   1     1.393738538464   120.65068184   179.95828435
 C      4   2   1     1.393729845343   120.65001258   180.04172391
 C      5   3   2     1.398524273869   120.97783211     0.00000000
 H      3   2   1     1.093949238356   119.32762862   359.96340550
 H      4   2   1     1.093948075093   119.32763274     0.03680793
 H      5   3   2     1.093524504572   119.07828269   179.99946295
 H      6   4   2     1.093538179809   119.07782072   180.00015442
 H      7   5   3     1.091920133206   120.67824011   179.99826099
 H      1   2   3     1.008486111853   120.87879836   179.59835568
 H      1   2   3     1.008480895109   120.87823849     0.44117678
 O      1   2   3     1.285244902499    90.99875655    85.01641863
 H     15   1   2     0.966891956580   121.46854531    78.11576841
 H     15   1   2     0.966869051889   130.00149091   288.77622459

---------------------------
INTERNAL COORDINATES (A.U.)
---------------------------
 N      0   0   0     0.000000000000     0.00000000     0.00000000
 C      1   0   0     2.597845846625     0.00000000     0.00000000
 C      2   1   0     2.666337989945   120.95002292     0.00000000
 C      2   1   3     2.666363792985   120.94962941   179.96103228
 C      3   2   1     2.633784139989   120.65068184   179.95828435
 C      4   2   1     2.633767712371   120.65001258   180.04172391
 C      5   3   2     2.642827869253   120.97783211     0.00000000
 H      3   2   1     2.067264464905   119.32762862   359.96340550
 H      4   2   1     2.067262266656   119.32763274     0.03680793
 H      5   3   2     2.066461834373   119.07828269   179.99946295
 H      6   4   2     2.066487676826   119.07782072   180.00015442
 H      7   5   3     2.063430011874   120.67824011   179.99826099
 H      1   2   3     1.905762561265   120.87879836   179.59835568
 H      1   2   3     1.905752703048   120.87823849     0.44117678
 O      1   2   3     2.428760880742    90.99875655    85.01641863
 H     15   1   2     1.827160999028   121.46854531    78.11576841
 H     15   1   2     1.827117715434   130.00149091   288.77622459

---------------------
BASIS SET INFORMATION
---------------------
There are 4 groups of distinct atoms

 Group   1 Type N   : 7s4p1d contracted to 3s2p1d pattern {511/31/1}
 Group   2 Type C   : 7s4p1d contracted to 3s2p1d pattern {511/31/1}
 Group   3 Type H   : 4s1p contracted to 2s1p pattern {31/1}
 Group   4 Type O   : 7s4p1d contracted to 3s2p1d pattern {511/31/1}

Atom   0N    basis set group =>   1
Atom   1C    basis set group =>   2
Atom   2C    basis set group =>   2
Atom   3C    basis set group =>   2
Atom   4C    basis set group =>   2
Atom   5C    basis set group =>   2
Atom   6C    basis set group =>   2
Atom   7H    basis set group =>   3
Atom   8H    basis set group =>   3
Atom   9H    basis set group =>   3
Atom  10H    basis set group =>   3
Atom  11H    basis set group =>   3
Atom  12H    basis set group =>   3
Atom  13H    basis set group =>   3
Atom  14O    basis set group =>   4
Atom  15H    basis set group =>   3
Atom  16H    basis set group =>   3
---------------------------------
AUXILIARY/J BASIS SET INFORMATION
---------------------------------
There are 4 groups of distinct atoms

 Group   1 Type N   : 12s5p4d2f1g contracted to 6s4p3d1f1g pattern {711111/2111/211/2/1}
 Group   2 Type C   : 12s5p4d2f1g contracted to 6s4p3d1f1g pattern {711111/2111/211/2/1}
 Group   3 Type H   : 5s2p1d contracted to 3s1p1d pattern {311/2/1}
 Group   4 Type O   : 12s5p4d2f1g contracted to 6s4p3d1f1g pattern {711111/2111/211/2/1}

Atom   0N    basis set group =>   1
Atom   1C    basis set group =>   2
Atom   2C    basis set group =>   2
Atom   3C    basis set group =>   2
Atom   4C    basis set group =>   2
Atom   5C    basis set group =>   2
Atom   6C    basis set group =>   2
Atom   7H    basis set group =>   3
Atom   8H    basis set group =>   3
Atom   9H    basis set group =>   3
Atom  10H    basis set group =>   3
Atom  11H    basis set group =>   3
Atom  12H    basis set group =>   3
Atom  13H    basis set group =>   3
Atom  14O    basis set group =>   4
Atom  15H    basis set group =>   3
Atom  16H    basis set group =>   3


           ************************************************************
           *        Program running with 20 parallel MPI-processes    *
           *              working on a common directory               *
           ************************************************************
------------------------------------------------------------------------------
                             ORCA STARTUP CALCULATIONS
                           -- RI-GTO INTEGRALS CHOSEN --
------------------------------------------------------------------------------
------------------------------------------------------------------------------
                   ___                                                        
                  /   \      - P O W E R E D   B Y -                         
                 /     \                                                     
                 |  |  |   _    _      __       _____    __    __             
                 |  |  |  | |  | |    /  \     |  _  \  |  |  /  |          
                  \  \/   | |  | |   /    \    | | | |  |  | /  /          
                 / \  \   | |__| |  /  /\  \   | |_| |  |  |/  /          
                |  |  |   |  __  | /  /__\  \  |    /   |      \           
                |  |  |   | |  | | |   __   |  |    \   |  |\   \          
                \     /   | |  | | |  |  |  |  | |\  \  |  | \   \       
                 \___/    |_|  |_| |__|  |__|  |_| \__\ |__|  \__/        
                                                                              
                      - O R C A' S   B I G   F R I E N D -                    
                                      &                                       
                       - I N T E G R A L  F E E D E R -                       
                                                                              
 v1 FN, 2020, v2 2021, v3 2022-2024                                           
------------------------------------------------------------------------------


----------------------
SHARK INTEGRAL PACKAGE
----------------------

Number of atoms                             ...     17
Number of basis functions                   ...    157
Number of shells                            ...     75
Maximum angular momentum                    ...      2
Integral batch strategy                     ... SHARK/LIBINT Hybrid
RI-J (if used) integral strategy            ... SPLIT-RIJ (Revised 2003 algorithm where possible)
Printlevel                                  ...      1
Contraction scheme used                     ... SEGMENTED contraction
Prescreening option                         ... SCHWARTZ
   Thresh                                   ... 2.500e-11
   Tcut                                     ... 2.500e-12
   Tpresel                                  ... 2.500e-12 
Coulomb Range Separation                    ... NOT USED
Exchange Range Separation                   ... NOT USED
Multipole approximations                    ... NOT USED
Finite Nucleus Model                        ... NOT USED
CABS basis                                  ... NOT available
Auxiliary Coulomb fitting basis             ... AVAILABLE
   # of basis functions in Aux-J            ...    491
   # of shells in Aux-J                     ...    165
   Maximum angular momentum in Aux-J        ...      4
Auxiliary J/K fitting basis                 ... NOT available
Auxiliary Correlation fitting basis         ... NOT available
Auxiliary 'external' fitting basis          ... NOT available

Checking pre-screening integrals            ... done (  0.0 sec) Dimension = 75
Check shell pair data                       ... done (  0.0 sec)
Shell pair information
Shell pair cut-off parameter TPreSel        ...   2.5e-12
Total number of shell pairs                 ...      2850
Shell pairs after pre-screening             ...      2718
Total number of primitive shell pairs       ...     10142
Primitive shell pairs kept                  ...      7217
          la=0 lb=0:    861 shell pairs
          la=1 lb=0:    999 shell pairs
          la=1 lb=1:    309 shell pairs
          la=2 lb=0:    322 shell pairs
          la=2 lb=1:    192 shell pairs
          la=2 lb=2:     35 shell pairs

Calculating one electron integrals          ... done (  0.0 sec)
Calculating RI/J V-Matrix + Cholesky decomp.... done (  0.0 sec)
Calculating Nuclear repulsion               ... done (  0.0 sec) ENN=    381.508343667995 Eh

Diagonalization of the overlap matrix:
Smallest eigenvalue                        ... 2.835e-04
Time for diagonalization                   ...    0.002 sec
Threshold for overlap eigenvalues          ... 1.000e-07
Number of eigenvalues below threshold      ... 0
Time for construction of square roots      ...    0.002 sec
Total time needed                          ...    0.009 sec

-------------------
DFT GRID GENERATION
-------------------

General Integration Accuracy     IntAcc      ... 4.388
Radial Grid Type                 RadialGrid  ... OptM3 with GC (2021)
Angular Grid (max. ang.)         AngularGrid ... 4 (Lebedev-302)
Angular grid pruning method      GridPruning ... 4 (adaptive)
Weight generation scheme         WeightScheme... mBecke (2022)
Basis function cutoff            BFCut       ... 1.0000e-11
Integration weight cutoff        WCut        ... 1.0000e-14
Partially contracted basis set               ... off
Rotationally invariant grid construction     ... off
Angular grids for H and He will be reduced by one unit

Total number of grid points                  ...    76873
Total number of batches                      ...     1210
Average number of points per batch           ...       63
Average number of grid points per atom       ...     4522

--------------------
COSX GRID GENERATION
--------------------

GRIDX 1
-------
General Integration Accuracy     IntAcc      ... 3.816
Radial Grid Type                 RadialGrid  ... OptM3 with GC (2021)
Angular Grid (max. ang.)         AngularGrid ... 1 (Lebedev-50)
Angular grid pruning method      GridPruning ... 4 (adaptive)
Weight generation scheme         WeightScheme... mBecke (2022)
Basis function cutoff            BFCut       ... 1.0000e-11
Integration weight cutoff        WCut        ... 1.0000e-14
Partially contracted basis set               ... on
Rotationally invariant grid construction     ... off
Angular grids for H and He will be reduced by one unit

Total number of grid points                  ...     9859
Total number of batches                      ...       86
Average number of points per batch           ...      114
Average number of grid points per atom       ...      580
UseSFitting                                  ... on

GRIDX 2
-------
General Integration Accuracy     IntAcc      ... 4.020
Radial Grid Type                 RadialGrid  ... OptM3 with GC (2021)
Angular Grid (max. ang.)         AngularGrid ... 2 (Lebedev-110)
Angular grid pruning method      GridPruning ... 4 (adaptive)
Weight generation scheme         WeightScheme... mBecke (2022)
Basis function cutoff            BFCut       ... 1.0000e-11
Integration weight cutoff        WCut        ... 1.0000e-14
Partially contracted basis set               ... on
Rotationally invariant grid construction     ... off
Angular grids for H and He will be reduced by one unit

Total number of grid points                  ...    21104
Total number of batches                      ...      174
Average number of points per batch           ...      121
Average number of grid points per atom       ...     1241
UseSFitting                                  ... on

GRIDX 3
-------
General Integration Accuracy     IntAcc      ... 4.338
Radial Grid Type                 RadialGrid  ... OptM3 with GC (2021)
Angular Grid (max. ang.)         AngularGrid ... 3 (Lebedev-194)
Angular grid pruning method      GridPruning ... 4 (adaptive)
Weight generation scheme         WeightScheme... mBecke (2022)
Basis function cutoff            BFCut       ... 1.0000e-11
Integration weight cutoff        WCut        ... 1.0000e-14
Partially contracted basis set               ... on
Rotationally invariant grid construction     ... off
Angular grids for H and He will be reduced by one unit

Total number of grid points                  ...    46330
Total number of batches                      ...      370
Average number of points per batch           ...      125
Average number of grid points per atom       ...     2725
UseSFitting                                  ... on
Initializing property integral containers    ... done (  0.0 sec)

SHARK setup successfully completed in   0.8 seconds

Maximum memory used throughout the entire STARTUP-calculation: 19.3 MB


           ************************************************************
           *        Program running with 20 parallel MPI-processes    *
           *              working on a common directory               *
           ************************************************************
-------------------------------------------------------------------------------
                                 ORCA GUESS
                   Start orbitals & Density for SCF / CASSCF
-------------------------------------------------------------------------------

------------
SCF SETTINGS
------------
Hamiltonian:
 Density Functional     Method          .... DFT(GTOs)
 Exchange Functional    Exchange        .... B88
   X-Alpha parameter    XAlpha          ....  0.666667
   Becke's b parameter  XBeta           ....  0.004200
 Correlation Functional Correlation     .... LYP
 LDA part of GGA corr.  LDAOpt          .... VWN-5
 Gradients option       PostSCFGGA      .... off
 Hybrid DFT is turned on
   Fraction HF Exchange ScalHFX         ....  0.200000
   Scaling of DF-GGA-X  ScalDFX         ....  0.720000
   Scaling of DF-GGA-C  ScalDFC         ....  0.810000
   Scaling of DF-LDA-C  ScalLDAC        ....  1.000000
   Perturbative correction              ....  0.000000
   NL short-range parameter             ....  4.800000
 RI-approximation to the Coulomb term is turned on
   Number of AuxJ basis functions       .... 491
   RIJ-COSX (HFX calculated with COS-X)).... on


General Settings:
 Integral files         IntName         .... aninline_water_2
 Hartree-Fock type      HFTyp           .... RHF
 Total Charge           Charge          ....    0
 Multiplicity           Mult            ....    1
 Number of Electrons    NEL             ....   60
 Basis Dimension        Dim             ....  157
 Nuclear Repulsion      ENuc            ....    381.5083436680 Eh

Convergence Acceleration:
 AO-DIIS                CNVDIIS         .... on
   Start iteration      DIISMaxIt       ....    12
   Startup error        DIISStart       ....  0.200000
   # of expansion vecs  DIISMaxEq       ....     5
   Bias factor          DIISBfac        ....   1.050
   Max. coefficient     DIISMaxC        ....  10.000
 MO-DIIS                CNVKDIIS        .... off
 Trust-Rad. Augm. Hess. CNVTRAH         .... auto
   Auto Start mean grad. ratio tolernc. ....  1.125000
   Auto Start start iteration           ....    50
   Auto Start num. interpolation iter.  ....    10
   Max. Number of Micro iterations      ....    24
   Max. Number of Macro iterations      .... Maxiter - #DIIS iter
   Number of Davidson start vectors     ....     2
   Converg. threshold    (grad. norm)   ....   1.000e-05
   Grad. Scal. Fac. for Micro threshold ....   0.100
   Minimum threshold for Micro iter.    ....   1.000e-02
   NR start threshold (gradient norm)   ....   1.000e-04
   Initial trust radius                 ....   0.400
   Minimum AH scaling param. (alpha)    ....   1.000
   Maximum AH scaling param. (alpha)    .... 1000.000
   Quad. conv. algorithm                .... NR
   White noise on init. David. guess    .... on
   Maximum white noise                  ....   0.010
   Pseudo random numbers                .... off
   Inactive MOs                         .... canonical
   Orbital update algorithm             .... Taylor
   Preconditioner                       .... Diag
   Full preconditioner red. dimension   ....   250
 SOSCF                  CNVSOSCF        .... on
   Start iteration      SOSCFMaxIt      ....   150
   Startup grad/error   SOSCFStart      ....  0.003300
   Hessian update       SOSCFHessUp     .... L-BFGS
 Level Shifting         CNVShift        .... on
   Level shift para.    LevelShift      ....    0.2500
   Turn off err/grad.   ShiftErr        ....    0.0010
 Zerner damping         CNVZerner       .... off
 Static damping         CNVDamp         .... on
   Fraction old density DampFac         ....    0.7000
   Max. Damping (<1)    DampMax         ....    0.9800
   Min. Damping (>=0)   DampMin         ....    0.0000
   Turn off err/grad.   DampErr         ....    0.1000

SCF Procedure:
 Maximum # iterations   MaxIter         ....   125
 SCF integral mode      SCFMode         .... Direct
   Integral package                     .... SHARK and LIBINT hybrid scheme
 Reset frequency        DirectResetFreq ....    20
 Integral Threshold     Thresh          ....  2.500e-11 Eh
 Primitive CutOff       TCut            ....  2.500e-12 Eh

Convergence Tolerance:
 Convergence Check Mode ConvCheckMode   .... Total+1el-Energy
 Convergence forced     ConvForced      .... 0
 Energy Change          TolE            ....  1.000e-08 Eh
 1-El. energy change                    ....  1.000e-05 Eh
 Orbital Gradient       TolG            ....  1.000e-05
 Orbital Rotation angle TolX            ....  1.000e-05
 DIIS Error             TolErr          ....  5.000e-07

------------------------------
INITIAL GUESS: MODEL POTENTIAL
------------------------------
Loading Hartree-Fock densities                     ... done
Calculating cut-offs                               ... done
Initializing the effective Hamiltonian             ... done
Setting up the integral package (SHARK)            ... done
Starting the Coulomb interaction                   ... done (   0.0 sec)
Making the grid                                    ... done (   0.1 sec)
Mapping shells                                     ... done
Starting the XC term evaluation                    ... done (   0.0 sec)
  promolecular density results
     # of electrons  =     60.001396866
     EX              =    -48.489650523
     EC              =     -2.031384358
     EX+EC           =    -50.521034881
Transforming the Hamiltonian                       ... done (   0.0 sec)
Diagonalizing the Hamiltonian                      ... done (   0.0 sec)
Back transforming the eigenvectors                 ... done (   0.0 sec)
Now organizing SCF variables                       ... done
                      ------------------
                      INITIAL GUESS DONE (   0.1 sec)
                      ------------------
             **** ENERGY FILE WAS UPDATED (aninline_water_2.en.tmp) ****
Finished Guess after   0.7 sec
Maximum memory used throughout the entire GUESS-calculation: 11.2 MB


           ************************************************************
           *        Program running with 20 parallel MPI-processes    *
           *              working on a common directory               *
           ************************************************************

-------------------------------------------------------------------------------------------
                                      ORCA LEAN-SCF
                              memory conserving SCF solver
-------------------------------------------------------------------------------------------

----------------------------------------D-I-I-S--------------------------------------------
Iteration    Energy (Eh)           Delta-E    RMSDP     MaxDP     DIISErr   Damp  Time(sec)
-------------------------------------------------------------------------------------------
               ***  Starting incremental Fock matrix formation  ***
    1    -362.2580116225032612     0.00e+00  1.73e-02  5.57e-01  2.46e-01  0.700   0.4
Warning: op=0 Small HOMO/LUMO gap (  -0.059) - skipping pre-diagonalization
         Will do a full diagonalization
    2    -362.6473816678171147    -3.89e-01  9.93e-03  3.45e-01  1.06e-01  0.700   0.3
                               ***Turning on AO-DIIS***
    3    -362.7534720779535178    -1.06e-01  6.98e-03  2.12e-01  5.58e-02  0.700   0.3
    4    -362.8290270231714771    -7.56e-02  1.76e-02  5.49e-01  3.56e-02  0.000   0.3
    5    -363.0364368545156708    -2.07e-01  3.81e-03  7.46e-02  3.95e-02  0.000   0.3
    6    -363.0605042280004113    -2.41e-02  2.80e-03  5.15e-02  1.71e-02  0.000   0.3
    7    -363.0686801400721038    -8.18e-03  2.03e-03  4.12e-02  7.58e-03  0.000   0.3
    8    -363.0713632945435734    -2.68e-03  1.73e-03  4.98e-02  4.92e-03  0.000   0.3
    9    -363.0728637540542536    -1.50e-03  1.82e-03  5.99e-02  4.21e-03  0.000   0.3
                              *** Initializing SOSCF ***
---------------------------------------S-O-S-C-F--------------------------------------
Iteration    Energy (Eh)           Delta-E    RMSDP     MaxDP     MaxGrad    Time(sec)
--------------------------------------------------------------------------------------
   10    -363.0738261526774409    -9.62e-04  1.23e-03  3.73e-02  3.27e-03     0.3
               *** Restarting incremental Fock matrix formation ***
   11    -363.0743811513229389    -5.55e-04  2.53e-03  7.32e-02  5.28e-03     0.3
   12    -363.0749599297880081    -5.79e-04  2.03e-03  6.10e-02  1.61e-03     0.3
   13    -363.0751322472988818    -1.72e-04  2.70e-04  6.74e-03  1.10e-03     0.3
   14    -363.0751754061441829    -4.32e-05  2.38e-04  7.13e-03  6.46e-04     0.3
   15    -363.0751813833915662    -5.98e-06  9.30e-05  1.61e-03  5.11e-04     0.3
   16    -363.0751891623196457    -7.78e-06  5.95e-05  1.29e-03  1.32e-04     0.3
   17    -363.0751896913688483    -5.29e-07  2.12e-05  4.50e-04  8.39e-05     0.3
   18    -363.0751900095828546    -3.18e-07  1.69e-05  4.76e-04  2.23e-05     0.3
   19    -363.0751900540480506    -4.45e-08  7.24e-06  1.60e-04  1.33e-05     0.3
   20    -363.0751900719561149    -1.79e-08  4.55e-06  1.05e-04  7.98e-06     0.3
   21    -363.0751900763620483    -4.41e-09  2.11e-06  6.30e-05  6.04e-06     0.3
                 **** Energy Check signals convergence ****

               *****************************************************
               *                     SUCCESS                       *
               *           SCF CONVERGED AFTER  21 CYCLES          *
               *****************************************************

Recomputing exchange energy using gridx3       ... done (    0.323 sec)
Old exchange energy                            :     -9.817104756 Eh
New exchange energy                            :     -9.817080180 Eh
Exchange energy change after final integration :      0.000024576 Eh
Total energy after final integration           :   -363.075165500 Eh
             **** ENERGY FILE WAS UPDATED (aninline_water_2.en.tmp) ****

----------------
TOTAL SCF ENERGY
----------------

Total Energy       :       -363.07516550029823 Eh           -9879.77753 eV

Components:
Nuclear Repulsion  :        381.50834366799546 Eh           10381.36981 eV
Electronic Energy  :       -744.58353374435751 Eh          -20261.14801 eV
One Electron Energy:      -1245.72775715523312 Eh          -33897.97561 eV
Two Electron Energy:        501.14422341087555 Eh           13636.82760 eV

Virial components:
Potential Energy   :       -724.60961181208131 Eh          -19717.62996 eV
Kinetic Energy     :        361.53444631178314 Eh            9837.85243 eV
Virial Ratio       :          2.00426161104214

DFT components:
N(Alpha)           :       30.000028485687 electrons
N(Beta)            :       30.000028485687 electrons
N(Total)           :       60.000056971373 electrons
E(X)               :      -39.056364264521 Eh       
E(C)               :       -2.389441222689 Eh       
E(XC)              :      -41.445805487210 Eh       

---------------
SCF CONVERGENCE
---------------

  Last Energy change         ...    4.4059e-09  Tolerance :   1.0000e-08
  Last MAX-Density change    ...    6.3039e-05  Tolerance :   1.0000e-07
  Last RMS-Density change    ...    2.1109e-06  Tolerance :   5.0000e-09
  Last DIIS Error            ...    3.2693e-03  Tolerance :   5.0000e-07
  Last Orbital Gradient      ...    6.0355e-06  Tolerance :   1.0000e-05
  Last Orbital Rotation      ...    1.2393e-05  Tolerance :   1.0000e-05


----------------
ORBITAL ENERGIES
----------------

  NO   OCC          E(Eh)            E(eV) 
   0   2.0000     -19.246094      -523.7128 
   1   2.0000     -14.471856      -393.7992 
   2   2.0000     -10.224409      -278.2203 
   3   2.0000     -10.180285      -277.0196 
   4   2.0000     -10.179765      -277.0055 
   5   2.0000     -10.178600      -276.9738 
   6   2.0000     -10.177395      -276.9410 
   7   2.0000     -10.161159      -276.4992 
   8   2.0000      -1.277892       -34.7732 
   9   2.0000      -0.952083       -25.9075 
  10   2.0000      -0.839035       -22.8313 
  11   2.0000      -0.757463       -20.6116 
  12   2.0000      -0.745217       -20.2784 
  13   2.0000      -0.712307       -19.3829 
  14   2.0000      -0.652788       -17.7633 
  15   2.0000      -0.640583       -17.4312 
  16   2.0000      -0.591467       -16.0946 
  17   2.0000      -0.550515       -14.9803 
  18   2.0000      -0.530246       -14.4287 
  19   2.0000      -0.484995       -13.1974 
  20   2.0000      -0.439001       -11.9458 
  21   2.0000      -0.433002       -11.7826 
  22   2.0000      -0.420710       -11.4481 
  23   2.0000      -0.412065       -11.2129 
  24   2.0000      -0.356829        -9.7098 
  25   2.0000      -0.344845        -9.3837 
  26   2.0000      -0.337103        -9.1730 
  27   2.0000      -0.247778        -6.7424 
  28   2.0000      -0.239843        -6.5265 
  29   2.0000      -0.073439        -1.9984 
  30   0.0000      -0.002806        -0.0764 
  31   0.0000       0.000186         0.0051 
  32   0.0000       0.024862         0.6765 
  33   0.0000       0.036715         0.9991 
  34   0.0000       0.069493         1.8910 
  35   0.0000       0.101272         2.7558 
  36   0.0000       0.106783         2.9057 
  37   0.0000       0.116037         3.1575 
  38   0.0000       0.127565         3.4712 
  39   0.0000       0.153331         4.1723 
  40   0.0000       0.163455         4.4478 
*Only the first 10 virtual orbitals were printed.

                    ********************************
                    * MULLIKEN POPULATION ANALYSIS *
                    ********************************

-----------------------
MULLIKEN ATOMIC CHARGES
-----------------------
   0 N :    0.297655
   1 C :   -0.033288
   2 C :    0.000371
   3 C :    0.012564
   4 C :    0.025663
   5 C :    0.019539
   6 C :   -0.009465
   7 H :   -0.057800
   8 H :   -0.056816
   9 H :   -0.024123
  10 H :   -0.024845
  11 H :   -0.032688
  12 H :   -0.009561
  13 H :   -0.056518
  14 O :    0.212918
  15 H :   -0.151740
  16 H :   -0.111864
Sum of atomic charges:   -0.0000000

--------------------------------
MULLIKEN REDUCED ORBITAL CHARGES
--------------------------------
  0 N s       :     3.201839  s :     3.201839
      pz      :     1.168111  p :     3.435028
      px      :     1.164731
      py      :     1.102186
      dz2     :     0.033728  d :     0.065479
      dxz     :     0.012692
      dyz     :     0.006719
      dx2y2   :     0.004954
      dxy     :     0.007386

  1 C s       :     2.965914  s :     2.965914
      pz      :     1.074618  p :     3.007845
      px      :     0.841199
      py      :     1.092028
      dz2     :     0.005703  d :     0.059529
      dxz     :     0.012118
      dyz     :     0.007528
      dx2y2   :     0.021230
      dxy     :     0.012951

  2 C s       :     3.200140  s :     3.200140
      pz      :     1.082400  p :     2.765507
      px      :     0.873580
      py      :     0.809527
      dz2     :     0.002644  d :     0.033982
      dxz     :     0.005774
      dyz     :     0.003422
      dx2y2   :     0.009232
      dxy     :     0.012911

  3 C s       :     3.202692  s :     3.202692
      pz      :     1.066147  p :     2.750245
      px      :     0.873087
      py      :     0.811012
      dz2     :     0.002638  d :     0.034499
      dxz     :     0.006180
      dyz     :     0.003477
      dx2y2   :     0.009299
      dxy     :     0.012906

  4 C s       :     3.161675  s :     3.161675
      pz      :     0.969758  p :     2.775747
      px      :     0.936086
      py      :     0.869902
      dz2     :     0.002563  d :     0.036915
      dxz     :     0.007420
      dyz     :     0.003761
      dx2y2   :     0.011372
      dxy     :     0.011800

  5 C s       :     3.160849  s :     3.160849
      pz      :     0.979099  p :     2.782958
      px      :     0.933948
      py      :     0.869912
      dz2     :     0.002564  d :     0.036653
      dxz     :     0.007175
      dyz     :     0.003761
      dx2y2   :     0.011374
      dxy     :     0.011780

  6 C s       :     3.149960  s :     3.149960
      pz      :     1.079129  p :     2.825661
      px      :     0.802418
      py      :     0.944113
      dz2     :     0.002554  d :     0.033843
      dxz     :     0.002532
      dyz     :     0.005518
      dx2y2   :     0.012436
      dxy     :     0.010802

  7 H s       :     1.034408  s :     1.034408
      pz      :     0.005401  p :     0.023392
      px      :     0.006006
      py      :     0.011985

  8 H s       :     1.033507  s :     1.033507
      pz      :     0.005369  p :     0.023310
      px      :     0.005904
      py      :     0.012037

  9 H s       :     1.001369  s :     1.001369
      pz      :     0.004685  p :     0.022754
      px      :     0.006202
      py      :     0.011867

 10 H s       :     1.002070  s :     1.002070
      pz      :     0.004745  p :     0.022775
      px      :     0.006178
      py      :     0.011853

 11 H s       :     1.009448  s :     1.009448
      pz      :     0.005672  p :     0.023240
      px      :     0.014403
      py      :     0.003165

 12 H s       :     0.963475  s :     0.963475
      pz      :     0.009037  p :     0.046086
      px      :     0.012584
      py      :     0.024466

 13 H s       :     1.008654  s :     1.008654
      pz      :     0.010667  p :     0.047864
      px      :     0.012922
      py      :     0.024274

 14 O s       :     3.433878  s :     3.433878
      pz      :     1.102073  p :     4.333250
      px      :     1.903670
      py      :     1.327506
      dz2     :     0.005392  d :     0.019954
      dxz     :     0.005084
      dyz     :     0.007411
      dx2y2   :     0.001020
      dxy     :     0.001047

 15 H s       :     1.087294  s :     1.087294
      pz      :     0.019961  p :     0.064446
      px      :     0.013248
      py      :     0.031237

 16 H s       :     1.046764  s :     1.046764
      pz      :     0.019870  p :     0.065100
      px      :     0.014116
      py      :     0.031113



                     *******************************
                     * LOEWDIN POPULATION ANALYSIS *
                     *******************************

----------------------
LOEWDIN ATOMIC CHARGES
----------------------
   0 N :    0.263437
   1 C :   -0.043935
   2 C :   -0.086215
   3 C :   -0.073762
   4 C :   -0.013302
   5 C :   -0.019626
   6 C :   -0.089043
   7 H :    0.009329
   8 H :    0.011890
   9 H :    0.026229
  10 H :    0.025634
  11 H :    0.019130
  12 H :    0.002242
  13 H :   -0.025804
  14 O :    0.252222
  15 H :   -0.143129
  16 H :   -0.115295

-------------------------------
LOEWDIN REDUCED ORBITAL CHARGES
-------------------------------
  0 N s       :     2.991498  s :     2.991498
      pz      :     1.163604  p :     3.572679
      px      :     1.222206
      py      :     1.186869
      dz2     :     0.104205  d :     0.172387
      dxz     :     0.022821
      dyz     :     0.010430
      dx2y2   :     0.014395
      dxy     :     0.020536

  1 C s       :     2.844076  s :     2.844076
      pz      :     1.022230  p :     3.050989
      px      :     0.913727
      py      :     1.115033
      dz2     :     0.014138  d :     0.148870
      dxz     :     0.027520
      dyz     :     0.014949
      dx2y2   :     0.056021
      dxy     :     0.036241

  2 C s       :     2.857867  s :     2.857867
      pz      :     1.069375  p :     3.138057
      px      :     1.056386
      py      :     1.012296
      dz2     :     0.006397  d :     0.090292
      dxz     :     0.012200
      dyz     :     0.006833
      dx2y2   :     0.028068
      dxy     :     0.036794

  3 C s       :     2.858742  s :     2.858742
      pz      :     1.054155  p :     3.123804
      px      :     1.057089
      py      :     1.012560
      dz2     :     0.006382  d :     0.091216
      dxz     :     0.013027
      dyz     :     0.006891
      dx2y2   :     0.028198
      dxy     :     0.036718

  4 C s       :     2.860745  s :     2.860745
      pz      :     0.953847  p :     3.058015
      px      :     1.057356
      py      :     1.046812
      dz2     :     0.006143  d :     0.094542
      dxz     :     0.016032
      dyz     :     0.007413
      dx2y2   :     0.032100
      dxy     :     0.032854

  5 C s       :     2.860371  s :     2.860371
      pz      :     0.962526  p :     3.065306
      px      :     1.056293
      py      :     1.046488
      dz2     :     0.006161  d :     0.093949
      dxz     :     0.015369
      dyz     :     0.007433
      dx2y2   :     0.032167
      dxy     :     0.032819

  6 C s       :     2.856085  s :     2.856085
      pz      :     1.058075  p :     3.144075
      px      :     1.029780
      py      :     1.056220
      dz2     :     0.006273  d :     0.088883
      dxz     :     0.004457
      dyz     :     0.011979
      dx2y2   :     0.034923
      dxy     :     0.031251

  7 H s       :     0.920326  s :     0.920326
      pz      :     0.016764  p :     0.070345
      px      :     0.019117
      py      :     0.034464

  8 H s       :     0.918721  s :     0.918721
      pz      :     0.016358  p :     0.069389
      px      :     0.018687
      py      :     0.034344

  9 H s       :     0.908138  s :     0.908138
      pz      :     0.013774  p :     0.065633
      px      :     0.017945
      py      :     0.033915

 10 H s       :     0.908486  s :     0.908486
      pz      :     0.014089  p :     0.065879
      px      :     0.017940
      py      :     0.033851

 11 H s       :     0.912091  s :     0.912091
      pz      :     0.017793  p :     0.068778
      px      :     0.040368
      py      :     0.010617

 12 H s       :     0.848559  s :     0.848559
      pz      :     0.031079  p :     0.149199
      px      :     0.033663
      py      :     0.084457

 13 H s       :     0.867740  s :     0.867740
      pz      :     0.035138  p :     0.158064
      px      :     0.034200
      py      :     0.088725

 14 O s       :     3.395851  s :     3.395851
      pz      :     1.154307  p :     4.299767
      px      :     1.815549
      py      :     1.329911
      dz2     :     0.016415  d :     0.052160
      dxz     :     0.008979
      dyz     :     0.018762
      dx2y2   :     0.006179
      dxy     :     0.001826

 15 H s       :     0.921372  s :     0.921372
      pz      :     0.074009  p :     0.221757
      px      :     0.047866
      py      :     0.099883

 16 H s       :     0.892508  s :     0.892508
      pz      :     0.074247  p :     0.222787
      px      :     0.050141
      py      :     0.098399



                      *****************************
                      * MAYER POPULATION ANALYSIS *
                      *****************************

  NA   - Mulliken gross atomic population
  ZA   - Total nuclear charge
  QA   - Mulliken gross atomic charge
  VA   - Mayer's total valence
  BVA  - Mayer's bonded valence
  FA   - Mayer's free valence

  ATOM       NA         ZA         QA         VA         BVA        FA
  0 N      6.7023     7.0000     0.2977     3.4702     3.4702    -0.0000
  1 C      6.0333     6.0000    -0.0333     3.9920     3.9920    -0.0000
  2 C      5.9996     6.0000     0.0004     3.8347     3.8347    -0.0000
  3 C      5.9874     6.0000     0.0126     3.8590     3.8590     0.0000
  4 C      5.9743     6.0000     0.0257     3.8707     3.8707    -0.0000
  5 C      5.9805     6.0000     0.0195     3.8617     3.8617     0.0000
  6 C      6.0095     6.0000    -0.0095     3.7937     3.7937     0.0000
  7 H      1.0578     1.0000    -0.0578     1.0170     1.0170     0.0000
  8 H      1.0568     1.0000    -0.0568     1.0101     1.0101     0.0000
  9 H      1.0241     1.0000    -0.0241     0.9764     0.9764    -0.0000
 10 H      1.0248     1.0000    -0.0248     0.9765     0.9765    -0.0000
 11 H      1.0327     1.0000    -0.0327     0.9782     0.9782     0.0000
 12 H      1.0096     1.0000    -0.0096     1.1627     1.1627     0.0000
 13 H      1.0565     1.0000    -0.0565     1.1883     1.1883     0.0000
 14 O      7.7871     8.0000     0.2129     1.7926     1.7926     0.0000
 15 H      1.1517     1.0000    -0.1517     1.4071     1.4071     0.0000
 16 H      1.1119     1.0000    -0.1119     1.3773     1.3773     0.0000

  Mayer bond orders larger than 0.100000
B(  0-N ,  1-C ) :   1.1224 B(  0-N , 12-H ) :   0.7988 B(  0-N , 13-H ) :   0.7654 
B(  0-N , 14-O ) :   0.5581 B(  0-N , 15-H ) :   0.1111 B(  1-C ,  2-C ) :   1.3000 
B(  1-C ,  3-C ) :   1.3276 B(  2-C ,  4-C ) :   1.4327 B(  2-C ,  7-H ) :   0.9727 
B(  3-C ,  5-C ) :   1.4336 B(  3-C ,  8-H ) :   0.9757 B(  4-C ,  6-C ) :   1.3391 
B(  4-C ,  9-H ) :   0.9748 B(  5-C ,  6-C ) :   1.3212 B(  5-C , 10-H ) :   0.9743 
B(  6-C , 11-H ) :   0.9879 B( 12-H , 15-H ) :   0.1022 B( 12-H , 16-H ) :   0.1339 
B( 13-H , 15-H ) :   0.1663 B( 13-H , 16-H ) :   0.1301 B( 14-O , 15-H ) :   0.6591 
B( 14-O , 16-H ) :   0.6575 B( 15-H , 16-H ) :   0.2111 

-------
TIMINGS
-------

Total SCF time: 0 days 0 hours 0 min 7 sec 

Total time                  ....       7.058 sec
Sum of individual times     ....       6.888 sec  ( 97.6%)

SCF preparation             ....       0.582 sec  (  8.3%)
Fock matrix formation       ....       5.558 sec  ( 78.7%)
  Startup                   ....       0.091 sec  (  1.6% of F)
  Split-RI-J                ....       0.467 sec  (  8.4% of F)
  Chain of spheres X        ....       3.004 sec  ( 54.0% of F)
  XC integration            ....       1.766 sec  ( 31.8% of F)
    XC Preparation          ....       0.000 sec  (  0.0% of XC)
    Basis function eval.    ....       0.297 sec  ( 16.8% of XC)
    Density eval.           ....       0.125 sec  (  7.1% of XC)
    XC-Functional eval.     ....       0.075 sec  (  4.2% of XC)
    XC-Potential eval.      ....       0.185 sec  ( 10.4% of XC)
Diagonalization             ....       0.000 sec  (  0.0%)
Density matrix formation    ....       0.231 sec  (  3.3%)
Total Energy calculation    ....       0.081 sec  (  1.1%)
Population analysis         ....       0.022 sec  (  0.3%)
Orbital Transformation      ....       0.026 sec  (  0.4%)
Orbital Orthonormalization  ....       0.000 sec  (  0.0%)
DIIS solution               ....       0.240 sec  (  3.4%)
SOSCF solution              ....       0.147 sec  (  2.1%)
Finished LeanSCF after   7.1 sec

Maximum memory used throughout the entire LEANSCF-calculation: 16.7 MB


-------------------------------------------------------------------------------
                          DFT DISPERSION CORRECTION                            
                                                                               
                              DFTD3 V3.1  Rev 1                                
                          USING Becke-Johnson damping                          
-------------------------------------------------------------------------------
The B3LYP functional is recognized
Active option DFTDOPT                   ...         4   

molecular C6(AA) [au] = 2766.579215 


            DFT-D V3
 parameters
 s6 scaling factor         :     1.0000 
 a1 scaling factor         :     0.3981 
 s8 scaling factor         :     1.9889 
 a2 scaling factor         :     4.4211 
 ad hoc parameters k1-k3   :    16.0000     1.3333    -4.0000 

 Edisp/kcal,au: -17.911677147172  -0.028544071407 
 E6   /kcal   :  -8.528616892 
 E8   /kcal   :  -9.383060255 
 % E8         :  52.385157337 

-------------------------   ----------------
Dispersion correction           -0.028544071
-------------------------   ----------------


-------------------------   --------------------
FINAL SINGLE POINT ENERGY      -363.103709571706
-------------------------   --------------------



           ************************************************************
           *        Program running with 20 parallel MPI-processes    *
           *              working on a common directory               *
           ************************************************************
------------------------------------------------------------------------------
                         ORCA SCF GRADIENT CALCULATION
------------------------------------------------------------------------------

Nuc. rep. gradient        (SHARK) ... done (  0.0 sec)
HCore & Overlap gradient  (SHARK) ... done (  0.0 sec)
Split-RIJ-J gradient      (SHARK) ... done (  0.2 sec)
COSX-gradient                     ... done (  1.2 sec)
XC gradient                       ... done (  0.3 sec)
Dispersion correction             ... done (  0.0 sec)

-------------------
DISPERSION GRADIENT
-------------------

   1   N   :   -0.000592354   -0.000003327    0.000037086
   2   C   :   -0.000343305   -0.000005041    0.000072131
   3   C   :    0.000128395    0.000588135    0.000148185
   4   C   :    0.000135827   -0.000610083    0.000152737
   5   C   :    0.000510600    0.000474614    0.000073803
   6   C   :    0.000495005   -0.000479883    0.000066435
   7   C   :    0.000605702   -0.000002398    0.000031766
   8   H   :   -0.000033783    0.000408519    0.000064905
   9   H   :   -0.000034620   -0.000413897    0.000063411
  10   H   :    0.000176952    0.000279870    0.000006752
  11   H   :    0.000174240   -0.000279385    0.000005627
  12   H   :    0.000317169   -0.000000115    0.000001798
  13   H   :   -0.000296637   -0.000103195    0.000039909
  14   H   :   -0.000294236    0.000095094    0.000036034
  15   O   :   -0.000464959    0.000022620   -0.000251339
  16   H   :   -0.000248612   -0.000078094   -0.000275841
  17   H   :   -0.000235383    0.000106568   -0.000273399

Difference to translation invariance:
           :    0.0000000000   -0.0000000000   -0.0000000000

Difference to rotation invariance:
           :    0.0000000000    0.0000000000    0.0000000000

Norm of the Dispersion gradient    ...    0.0020106587
RMS gradient                       ...    0.0002815485
MAX gradient                       ...    0.0006100826

------------------
CARTESIAN GRADIENT
------------------

   1   N   :   -0.066025287    0.013568402   -0.229991102
   2   C   :   -0.079435549    0.012440946   -0.082908169
   3   C   :   -0.008276449   -0.012029765   -0.008636130
   4   C   :   -0.008784395    0.009370080   -0.008586250
   5   C   :    0.007171886   -0.000751380   -0.004930034
   6   C   :    0.008940410    0.003615119   -0.004575976
   7   C   :   -0.008296422   -0.001999294    0.001634258
   8   H   :   -0.001623947    0.000377518    0.002976461
   9   H   :   -0.001277135   -0.000309436    0.002514234
  10   H   :    0.000872448   -0.000181932   -0.000039031
  11   H   :    0.000883754    0.000168093    0.000161145
  12   H   :    0.000207207   -0.000022773    0.001980705
  13   H   :    0.023138586    0.054668112   -0.016193362
  14   H   :    0.035195075   -0.072624761   -0.046487269
  15   O   :    0.105903213    0.000864667    0.319564563
  16   H   :   -0.002353328    0.071888437    0.041033241
  17   H   :   -0.006240065   -0.079042033    0.032482716

Difference to translation invariance:
           :    0.0000000000    0.0000000000    0.0000000000

Difference to rotation invariance:
           :    0.0000483344   -0.0000165387   -0.0000544440

Norm of the Cartesian gradient     ...    0.4599917547
RMS gradient                       ...    0.0644117293
MAX gradient                       ...    0.3195645625

-------
TIMINGS
-------

Total SCF gradient time     ....        1.740 sec

Densities                   ....       0.000 sec  (  0.0%)
One electron gradient       ....       0.013 sec  (  0.8%)
RI-J Coulomb gradient       ....       0.178 sec  ( 10.2%)
COSX gradient               ....       1.250 sec  ( 71.8%)
XC gradient                 ....       0.251 sec  ( 14.4%)

Maximum memory used throughout the entire SCFGRAD-calculation: 29.2 MB
------------------------------------------------------------------------------
                         ORCA GEOMETRY RELAXATION STEP
------------------------------------------------------------------------------

Reading the OPT-File                    .... done
Getting information on internals        .... done
Copying old internal coords+grads       .... done
Making the new internal coordinates     .... (2022 redundants) done
Validating the new internal coordinates .... (2022 redundants) done
Calculating the B-matrix                .... done
Calculating the G,G- and P matrices     .... done
Transforming gradient to internals      .... done
Projecting the internal gradient        .... done
Number of atoms                         ....  17
Number of internal coordinates          ....  95
Current Energy                          ....  -363.103709572 Eh
Current gradient norm                   ....     0.459991755 Eh/bohr
Maximum allowed component of the step   ....  0.300
Current trust radius                    ....  0.300
Evaluating the initial hessian          ....  (Almloef) done
Projecting the Hessian                  .... done
Forming the augmented Hessian           .... done
Diagonalizing the augmented Hessian     .... done
Last element of RFO vector              ....  0.858353596
Lowest eigenvalues of augmented Hessian:
 -0.194870313  0.025055759  0.025310571  0.025472342  0.025478258
Length of the computed step             ....  0.597724039
Warning: the length of the step is outside the trust region - taking restricted step instead
The input lambda is                     ....     0.024025
   iter:   5  x=   -0.015268  g=   69.977768 f(x)=     1.950676
   iter:  10  x=   -0.691512  g=    0.245825 f(x)=     0.027499
   iter:  15  x=   -0.717204  g=    0.162064 f(x)=     0.000000
The output lambda is                    ....    -0.717204 (15 iterations)
The final length of the internal step   ....  0.300000000
Converting the step to Cartesian space:
 Initial RMS(Int)=    0.0307793506
Transforming coordinates:
 Iter   0:  RMS(Cart)=    0.0525997393 RMS(Int)=    1.5765240646
done
Storing new coordinates                 .... done

                                .--------------------.
          ----------------------|Geometry convergence|-------------------------
          Item                value                   Tolerance       Converged
          ---------------------------------------------------------------------
          RMS gradient        0.0356981449            0.0001000000      NO
          MAX gradient        0.2398497774            0.0003000000      NO
          RMS step            0.0307793506            0.0020000000      NO
          MAX step            0.1895578767            0.0040000000      NO
          ........................................................
          Max(Bonds)      0.1003      Max(Angles)    2.43
          Max(Dihed)        2.40      Max(Improp)    0.00
          ---------------------------------------------------------------------

The optimization has not yet converged - more geometry cycles are needed


    ---------------------------------------------------------------------------
                         Redundant Internal Coordinates
                            (Angstroem and degrees)

        Definition                    Value    dE/dq     Step     New-Value
    ----------------------------------------------------------------------------
     1. B(C   1,N   0)                1.3747 -0.009562  0.0075    1.3823   
     2. B(C   2,C   1)                1.4110 -0.009664  0.0043    1.4153   
     3. B(C   3,C   1)                1.4110 -0.007733  0.0036    1.4145   
     4. B(C   4,C   2)                1.3937  0.004381 -0.0017    1.3920   
     5. B(C   5,C   3)                1.3937  0.005367 -0.0021    1.3916   
     6. B(C   6,C   5)                1.3985 -0.007972  0.0028    1.4013   
     7. B(C   6,C   4)                1.3985 -0.005827  0.0019    1.4005   
     8. B(H   7,C   2)                1.0939  0.001134 -0.0006    1.0934   
     9. B(H   8,C   3)                1.0939  0.000902 -0.0004    1.0935   
    10. B(H   9,C   4)                1.0935  0.000270 -0.0001    1.0934   
    11. B(H  10,C   5)                1.0935  0.000287 -0.0001    1.0934   
    12. B(H  11,C   6)                1.0919  0.000206 -0.0001    1.0918   
    13. B(H  12,N   0)                1.0085 -0.058701  0.0270    1.0354   
    14. B(H  13,N   0)                1.0085 -0.080124  0.0368    1.0453   
    15. B(O  14,N   0)                1.2852 -0.239850  0.1003    1.3856   
    16. B(O  14,C   1)                1.8982 -0.162179  0.0865    1.9848   
    17. B(H  15,O  14)                0.9669 -0.081325  0.0352    1.0020   
    18. B(H  16,O  14)                0.9669 -0.081924  0.0354    1.0023   
    19. A(C   1,N   0,H  12)          120.88  0.004539   -0.30    120.58   
    20. A(H  13,N   0,O  14)           84.83 -0.029328    1.57     86.40   
    21. A(C   1,N   0,O  14)           91.00  0.005847    0.73     91.72   
    22. A(H  12,N   0,H  13)          118.24 -0.005881    0.36    118.60   
    23. A(C   1,N   0,H  13)          120.88  0.000900   -0.02    120.85   
    24. A(H  12,N   0,O  14)           93.42 -0.007783    0.17     93.59   
    25. A(C   2,C   1,C   3)          118.10 -0.004760    0.05    118.15   
    26. A(N   0,C   1,C   2)          120.95 -0.004237    0.21    121.16   
    27. A(N   0,C   1,O  14)           42.61 -0.049342    1.70     44.31   
    28. A(N   0,C   1,C   3)          120.95  0.009008   -0.26    120.69   
    29. A(C   2,C   1,O  14)          109.15  0.009230   -0.11    109.05   
    30. A(C   3,C   1,O  14)          115.43  0.019164   -0.64    114.78   
    31. A(C   4,C   2,H   7)          120.02 -0.001078   -0.00    120.02   
    32. A(C   1,C   2,H   7)          119.33 -0.003611    0.13    119.46   
    33. A(C   1,C   2,C   4)          120.65  0.004690   -0.13    120.52   
    34. A(C   5,C   3,H   8)          120.02 -0.000850   -0.01    120.01   
    35. A(C   1,C   3,H   8)          119.33 -0.002828    0.09    119.42   
    36. A(C   1,C   3,C   5)          120.65  0.003679   -0.08    120.57   
    37. A(C   6,C   4,H   9)          119.94  0.000159   -0.01    119.93   
    38. A(C   2,C   4,H   9)          119.08  0.001913   -0.10    118.97   
    39. A(C   2,C   4,C   6)          120.98 -0.002071    0.11    121.09   
    40. A(C   3,C   5,H  10)          119.08  0.001603   -0.09    118.99   
    41. A(C   3,C   5,C   6)          120.98 -0.001443    0.08    121.06   
    42. A(C   6,C   5,H  10)          119.94 -0.000160    0.01    119.95   
    43. A(C   5,C   6,H  11)          120.68  0.000025    0.02    120.70   
    44. A(C   4,C   6,H  11)          120.68  0.000070    0.02    120.70   
    45. A(C   4,C   6,C   5)          118.64 -0.000095   -0.04    118.60   
    46. A(N   0,O  14,H  16)          130.00  0.016504   -0.96    129.04   
    47. A(C   1,O  14,H  15)          103.47 -0.019051    1.06    104.53   
    48. A(N   0,O  14,H  15)          121.47  0.000641   -0.06    121.41   
    49. A(N   0,O  14,C   1)           46.39  0.043495   -2.43     43.97   
    50. A(H  15,O  14,H  16)          103.09 -0.013624    0.87    103.96   
    51. A(C   1,O  14,H  16)          105.36 -0.016787    0.98    106.34   
    52. D(C   3,C   1,N   0,H  13)   -179.60  0.035142   -2.40   -181.99   
    53. D(C   2,C   1,N   0,H  13)      0.44  0.016266   -1.50     -1.06   
    54. D(C   2,C   1,N   0,H  12)    179.60 -0.019728    1.38    180.98   
    55. D(C   3,C   1,N   0,H  12)     -0.44 -0.000852    0.49      0.05   
    56. D(C   3,C   1,N   0,O  14)    -95.02  0.004418   -0.13    -95.15   
    57. D(C   2,C   1,N   0,O  14)     85.02 -0.014458    0.77     85.78   
    58. D(C   4,C   2,C   1,N   0)    179.96  0.022113   -0.92    179.04   
    59. D(C   4,C   2,C   1,O  14)   -134.49 -0.030599    0.99   -133.49   
    60. D(H   7,C   2,C   1,N   0)     -0.04  0.015604   -0.74     -0.78   
    61. D(H   7,C   2,C   1,C   3)   -180.00 -0.002753    0.13   -179.87   
    62. D(C   4,C   2,C   1,C   3)     -0.00  0.003757   -0.05     -0.05   
    63. D(C   5,C   3,C   1,O  14)    131.74  0.027868   -0.83    130.91   
    64. D(C   5,C   3,C   1,C   2)      0.00 -0.003337    0.02      0.03   
    65. D(C   5,C   3,C   1,N   0)   -179.96 -0.021689    0.89   -179.07   
    66. D(H   8,C   3,C   1,N   0)      0.04 -0.015492    0.73      0.77   
    67. D(H   8,C   3,C   1,C   2)    180.00  0.002859   -0.14    179.86   
    68. D(H   9,C   4,C   2,H   7)     -0.01  0.004174   -0.14     -0.15   
    69. D(H   9,C   4,C   2,C   1)    180.00 -0.002381    0.04    180.04   
    70. D(C   6,C   4,C   2,H   7)    180.00  0.003265   -0.06    179.94   
    71. D(C   6,C   4,C   2,C   1)      0.00 -0.003290    0.12      0.12   
    72. D(H  10,C   5,C   3,H   8)      0.01 -0.004244    0.15      0.15   
    73. D(H  10,C   5,C   3,C   1)   -180.00  0.001995   -0.01   -180.01   
    74. D(C   6,C   5,C   3,H   8)   -180.00 -0.003800    0.10   -179.90   
    75. D(C   6,C   5,C   3,C   1)     -0.00  0.002440   -0.06     -0.06   
    76. D(C   4,C   6,C   5,H  10)    180.00 -0.001379    0.08    180.07   
    77. D(C   4,C   6,C   5,C   3)     -0.00 -0.001828    0.12      0.12   
[...]
   3   C   :    0.000104286    0.000510247    0.000139873
   4   C   :    0.000062761   -0.000561756    0.000229468
   5   C   :    0.000490411    0.000439269   -0.000033234
   6   C   :    0.000423404   -0.000437355    0.000061287
   7   C   :    0.000585039    0.000000922   -0.000055372
   8   H   :   -0.000054081    0.000372261    0.000055153
   9   H   :   -0.000063384   -0.000344830    0.000099859
  10   H   :    0.000182623    0.000284919   -0.000061888
  11   H   :    0.000184816   -0.000267935    0.000030346
  12   H   :    0.000315981    0.000008099   -0.000049229
  13   H   :   -0.000282643   -0.000145594    0.000135981
  14   H   :   -0.000320018    0.000031594    0.000036365
  15   O   :   -0.000364667    0.000155672   -0.000528090
  16   H   :   -0.000205966   -0.000003238   -0.000385820
  17   H   :   -0.000188791    0.000171553   -0.000364586

Difference to translation invariance:
           :   -0.0000000000    0.0000000000    0.0000000000

Difference to rotation invariance:
           :    0.0000000000    0.0000000000    0.0000000000

Norm of the Dispersion gradient    ...    0.0020385263
RMS gradient                       ...    0.0002854508
MAX gradient                       ...    0.0005850386

------------------
CARTESIAN GRADIENT
------------------

   1   N   :   -0.001592435    0.000645300   -0.000315942
   2   C   :    0.000089185    0.000897318   -0.000596379
   3   C   :   -0.000293310   -0.000212215    0.000084838
   4   C   :   -0.000946863   -0.000276922   -0.000366887
   5   C   :   -0.000034256    0.000107018   -0.000107761
   6   C   :    0.000455486    0.000179304   -0.000193004
   7   C   :   -0.000235158   -0.000220539    0.000107914
   8   H   :   -0.000075751   -0.000048020   -0.000000955
   9   H   :    0.000181433   -0.000039521    0.000027071
  10   H   :    0.000068475   -0.000041344    0.000012602
  11   H   :    0.000014406   -0.000018116    0.000000470
  12   H   :    0.000030492   -0.000014779    0.000015296
  13   H   :    0.000822738    0.000739497    0.000052326
  14   H   :    0.000441699   -0.001767501    0.000257769
  15   O   :    0.001948658   -0.000493825    0.001159063
  16   H   :    0.000106733    0.001017091    0.000770224
  17   H   :   -0.000981533   -0.000452747   -0.000906640

Difference to translation invariance:
           :   -0.0000000001    0.0000000001    0.0000000000

Difference to rotation invariance:
           :    0.0000657968   -0.0000684452    0.0002853181

Norm of the Cartesian gradient     ...    0.0044228448
RMS gradient                       ...    0.0006193221
MAX gradient                       ...    0.0019486583

-------
TIMINGS
-------

Total SCF gradient time     ....        1.477 sec

Densities                   ....       0.000 sec  (  0.0%)
One electron gradient       ....       0.014 sec  (  0.9%)
RI-J Coulomb gradient       ....       0.126 sec  (  8.6%)
COSX gradient               ....       1.063 sec  ( 72.0%)
XC gradient                 ....       0.226 sec  ( 15.3%)

Maximum memory used throughout the entire SCFGRAD-calculation: 29.2 MB
------------------------------------------------------------------------------
                         ORCA GEOMETRY RELAXATION STEP
------------------------------------------------------------------------------

Reading the OPT-File                    .... done
Getting information on internals        .... done
Copying old internal coords+grads       .... done
Making the new internal coordinates     .... (2022 redundants) done
Validating the new internal coordinates .... (2022 redundants) done
Calculating the B-matrix                .... done
Calculating the G,G- and P matrices     .... done
Transforming gradient to internals      .... done
Projecting the internal gradient        .... done
Number of atoms                         ....  17
Number of internal coordinates          ....  95
Current Energy                          ....  -363.576406478 Eh
Current gradient norm                   ....     0.004422845 Eh/bohr
Maximum allowed component of the step   ....  0.300
Current trust radius                    ....  0.700
Updating the Hessian (BFGS)             .... done
Forming the augmented Hessian           .... done
Diagonalizing the augmented Hessian     .... done
Last element of RFO vector              ....  0.986414514
Lowest eigenvalues of augmented Hessian:
 -0.000178491  0.002363945  0.004418136  0.006426239  0.010247198
Length of the computed step             ....  0.166537894
The final length of the internal step   ....  0.166537894
Converting the step to Cartesian space:
 Initial RMS(Int)=    0.0170864274
Transforming coordinates:
 Iter   0:  RMS(Cart)=    0.0450666910 RMS(Int)=    0.0171910074
done
Storing new coordinates                 .... done
The predicted energy change is          ....    -0.000091721
Previously predicted energy change      ....    -0.000017700
Actually observed energy change         ....    -0.000031505
Ratio of predicted to observed change   ....     1.779920821
New trust radius                        ....     0.466666667

                                .--------------------.
          ----------------------|Geometry convergence|-------------------------
          Item                value                   Tolerance       Converged
          ---------------------------------------------------------------------
          Energy change      -0.0000315054            0.0000050000      NO
          RMS gradient        0.0003348570            0.0001000000      NO
          MAX gradient        0.0013693167            0.0003000000      NO
          RMS step            0.0170864274            0.0020000000      NO
          MAX step            0.0669850745            0.0040000000      NO
          ........................................................
          Max(Bonds)      0.0354      Max(Angles)    2.45
          Max(Dihed)        2.62      Max(Improp)    0.00
          ---------------------------------------------------------------------

The optimization has not yet converged - more geometry cycles are needed


    ---------------------------------------------------------------------------
                         Redundant Internal Coordinates
                            (Angstroem and degrees)

        Definition                    Value    dE/dq     Step     New-Value
    ----------------------------------------------------------------------------
     1. B(C   1,N   0)                1.3897  0.000012 -0.0027    1.3870   
     2. B(C   2,C   1)                1.4125 -0.000391 -0.0008    1.4117   
     3. B(C   3,C   1)                1.4088 -0.000059  0.0018    1.4106   
     4. B(C   4,C   2)                1.3949  0.000053  0.0008    1.3957   
     5. B(C   5,C   3)                1.3958  0.000270 -0.0009    1.3949   
     6. B(C   6,C   5)                1.3976 -0.000256  0.0006    1.3982   
     7. B(C   6,C   4)                1.3989  0.000072 -0.0011    1.3978   
     8. B(H   7,C   2)                1.0934 -0.000001  0.0005    1.0939   
     9. B(H   8,C   3)                1.0941 -0.000037  0.0001    1.0942   
    10. B(H   9,C   4)                1.0935 -0.000010 -0.0002    1.0934   
    11. B(H  10,C   5)                1.0935  0.000024 -0.0002    1.0933   
    12. B(H  11,C   6)                1.0921  0.000027  0.0001    1.0922   
    13. B(H  12,N   0)                1.0139 -0.000995 -0.0011    1.0128   
    14. B(H  13,N   0)                1.0187 -0.001369 -0.0010    1.0177   
    15. B(O  14,N   0)                2.9724 -0.000125  0.0104    2.9828   
    16. B(O  14,C   1)                3.1843 -0.001069  0.0354    3.2197   
    17. B(H  15,O  14)                0.9668 -0.001149 -0.0001    0.9667   
    18. B(H  16,O  14)                0.9681 -0.001181  0.0003    0.9684   
    19. A(C   1,N   0,H  12)          114.15 -0.000197    0.73    114.88   
    20. A(H  13,N   0,O  14)           30.70 -0.000108   -1.02     29.68   
    21. A(C   1,N   0,O  14)           85.65 -0.000393    1.28     86.92   
    22. A(H  12,N   0,H  13)          111.72  0.000121    0.31    112.03   
    23. A(C   1,N   0,H  13)          112.93 -0.000335    0.66    113.59   
    24. A(H  12,N   0,O  14)          114.21  0.000239    1.64    115.86   
    25. A(C   2,C   1,C   3)          118.00  0.000258   -0.15    117.85   
    26. A(N   0,C   1,C   2)          120.21  0.000058    0.20    120.41   
    27. A(N   0,C   1,O  14)           68.56  0.000320   -0.85     67.70   
    28. A(N   0,C   1,C   3)          121.77 -0.000312   -0.04    121.73   
    29. A(C   2,C   1,O  14)           75.12 -0.000233   -1.06     74.06   
    30. A(C   3,C   1,O  14)          130.13 -0.000222    2.45    132.58   
    31. A(C   4,C   2,H   7)          120.29  0.000125   -0.23    120.06   
    32. A(C   1,C   2,H   7)          118.94 -0.000046    0.12    119.06   
    33. A(C   1,C   2,C   4)          120.74 -0.000080    0.09    120.83   
    34. A(C   5,C   3,H   8)          119.88 -0.000095    0.06    119.94   
    35. A(C   1,C   3,H   8)          119.32  0.000265   -0.20    119.13   
    36. A(C   1,C   3,C   5)          120.79 -0.000169    0.13    120.93   
    37. A(C   6,C   4,H   9)          119.91 -0.000060    0.02    119.93   
    38. A(C   2,C   4,H   9)          119.28  0.000114    0.04    119.32   
    39. A(C   2,C   4,C   6)          120.80 -0.000054   -0.05    120.75   
    40. A(C   3,C   5,H  10)          119.20  0.000028    0.17    119.37   
    41. A(C   3,C   5,C   6)          120.83 -0.000062   -0.12    120.71   
    42. A(C   6,C   5,H  10)          119.97  0.000034   -0.05    119.92   
    43. A(C   5,C   6,H  11)          120.59 -0.000080   -0.02    120.57   
    44. A(C   4,C   6,H  11)          120.59 -0.000028   -0.08    120.50   
    45. A(C   4,C   6,C   5)          118.82  0.000109    0.10    118.92   
    46. A(N   0,O  14,H  16)           86.14  0.000663   -2.28     83.86   
    47. A(C   1,O  14,H  15)           77.07 -0.000539    0.31     77.38   
    48. A(N   0,O  14,H  15)           80.83 -0.000478    0.44     81.28   
    49. A(N   0,O  14,C   1)           25.80  0.000074   -0.42     25.37   
    50. A(H  15,O  14,H  16)          102.21 -0.000324    0.14    102.35   
    51. A(C   1,O  14,H  16)           62.75  0.000552   -1.87     60.89   
    52. D(C   3,C   1,N   0,H  13)   -139.26  0.000466   -1.67   -140.93   
    53. D(C   2,C   1,N   0,H  13)     42.35  0.000295   -1.79     40.56   
    54. D(C   2,C   1,N   0,H  12)    171.40 -0.000019   -0.13    171.27   
    55. D(C   3,C   1,N   0,H  12)    -10.22  0.000152   -0.01    -10.22   
    56. D(C   3,C   1,N   0,O  14)   -124.84  0.000092   -2.49   -127.33   
    57. D(C   2,C   1,N   0,O  14)     56.78 -0.000078   -2.62     54.16   
    58. D(C   4,C   2,C   1,N   0)    179.70  0.000051    0.16    179.86   
    59. D(C   4,C   2,C   1,O  14)   -126.63  0.000236   -2.18   -128.81   
    60. D(H   7,C   2,C   1,N   0)      1.90  0.000075    0.60      2.50   
    61. D(H   7,C   2,C   1,C   3)   -176.54 -0.000081    0.48   -176.06   
    62. D(C   4,C   2,C   1,C   3)      1.25 -0.000104    0.04      1.29   
    63. D(C   5,C   3,C   1,O  14)     93.44 -0.000143   -0.12     93.31   
    64. D(C   5,C   3,C   1,C   2)     -0.46  0.000095   -0.07     -0.53   
    65. D(C   5,C   3,C   1,N   0)   -178.88 -0.000070   -0.20   -179.08   
    66. D(H   8,C   3,C   1,N   0)      1.31 -0.000113   -0.17      1.14   
    67. D(H   8,C   3,C   1,C   2)    179.73  0.000052   -0.04    179.69   
    68. D(H   9,C   4,C   2,H   7)     -2.23  0.000014   -0.36     -2.59   
    69. D(H   9,C   4,C   2,C   1)   -179.99  0.000042    0.08   -179.91   
    70. D(C   6,C   4,C   2,H   7)    176.78  0.000020   -0.46    176.33   
    71. D(C   6,C   4,C   2,C   1)     -0.98  0.000048   -0.01     -1.00   
    72. D(H  10,C   5,C   3,H   8)     -0.22  0.000009   -0.01     -0.23   
    73. D(H  10,C   5,C   3,C   1)    179.97 -0.000035    0.02    179.99   
    74. D(C   6,C   5,C   3,H   8)    179.19  0.000016    0.05    179.23   
    75. D(C   6,C   5,C   3,C   1)     -0.62 -0.000028    0.08     -0.55   
    76. D(C   4,C   6,C   5,H  10)   -179.69 -0.000026    0.01   -179.68   
    77. D(C   4,C   6,C   5,C   3)      0.91 -0.000033   -0.04      0.87   
    78. D(H  11,C   6,C   4,H   9)     -0.63  0.000007   -0.05     -0.68   
    79. D(H  11,C   6,C   4,C   2)   -179.63  0.000000    0.04   -179.59   
    80. D(C   5,C   6,C   4,H   9)    178.89  0.000030   -0.08    178.81   
    81. D(H  11,C   6,C   5,C   3)   -179.57 -0.000010   -0.07   -179.64   
    82. D(C   5,C   6,C   4,C   2)     -0.11  0.000023    0.01     -0.10   
    83. D(H  11,C   6,C   5,H  10)     -0.17 -0.000003   -0.02     -0.19   
    84. D(H  16,O  14,C   1,N   0)    153.04  0.000310   -1.17    151.87   
    85. D(H  15,O  14,C   1,C   2)    132.71 -0.000009   -2.42    130.29   
    86. D(H  15,O  14,C   1,N   0)    -95.71  0.000017   -0.69    -96.41   
    87. D(N   0,O  14,C   1,C   3)    114.12 -0.000158   -1.26    112.87   
    88. D(N   0,O  14,C   1,C   2)   -131.58 -0.000026   -1.72   -133.30   
    89. D(H  16,O  14,N   0,C   1)    -23.82  0.000164   -0.63    -24.45   
    90. D(H  15,O  14,N   0,H  13)   -127.49  0.000332    0.19   -127.30   
    91. D(H  15,O  14,N   0,H  12)    -35.34  0.000133   -2.35    -37.69   
    92. D(H  15,O  14,N   0,C   1)     79.21 -0.000236   -0.48     78.73   
    93. D(H  15,O  14,C   1,C   3)     18.41 -0.000140   -1.95     16.46   
    94. D(C   1,O  14,N   0,H  13)    153.29  0.000568    0.67    153.97   
    95. D(C   1,O  14,N   0,H  12)   -114.56  0.000369   -1.87   -116.43   
    ----------------------------------------------------------------------------

Geometry step timings:
Preparation and reading OPT file:      0.002 s (19.182 %)
Internal coordinates            :      0.000 s ( 0.365 %)
B/P matrices and projection     :      0.001 s (10.927 %)
Hessian update/contruction      :      0.003 s (35.179 %)
Making the step                 :      0.001 s ( 8.986 %)
Converting the step to Cartesian:      0.000 s ( 1.016 %)
Storing new data                :      0.001 s ( 5.926 %)
Checking convergence            :      0.000 s ( 0.206 %)
Final printing                  :      0.002 s (18.201 %)
Total time                      :      0.009 s

Time for energy+gradient        :      7.795 s
Time for complete geometry iter :      8.752 s




    ----------------------------------------------------------------------------
                                  WARNING !!!
       The optimization did not converge but reached the maximum number of
       optimization cycles.
       Please check your results very carefully.
    ----------------------------------------------------------------------------



--------------------------------
SUGGESTED CITATIONS FOR THIS RUN
--------------------------------

Below you find a list of papers that are relevant to this ORCA run
We neither can nor want to force you to cite these papers, but we appreciate if you do
You receive ORCA, which is the product of decades of hard work by many enthusiastic individuals, for free
The only thing we kindly ask in return is that you cite our papers,
We deeply appreciate it, if you show your appreciation for ORCA by not just citing the generic ORCA reference.

Please note that relegating all ORCA citations to the supporting information does *not* help us.
SI sections are not indexed - citations you put there will not count into any citation statistics
But we need these citations in order to attract the funding resources that allow us to do what we are doing

Therefore, if you are a happy ORCA user, please consider citing a few of the papers listed below in the main body of your paper

In addition to the list printed below, the program has created the file aninline_water_2.bibtex that contains the list in bibtex format
You can import this file easily into all common literature databanks and citation aid programs


List of essential papers. We consider these as the minimum necessary citations

  1. Neese,F.
     Software update: the ORCA program system, version 5.0
     WIRES Comput. Molec. Sci., 2022 12(1)e1606
     doi.org/10.1002/wcms.1606

List of papers to cite with high priority. The work reported in these papers was absolutely
necessary for this run to complete.
Our perspective: the developers of density functionals and basis sets usually get cited in chemistry papers
Good! But without the algorithms to do something with them, the functionals or basis sets would not do anything.
Hence, in our opinion, the algorithm design and method developments papers are equally worthy of getting cited

  1. Neese,F.
     An improvement of the resolution of the identity approximation for the formation of the Coulomb matrix
     J. Comp. Chem., 2003 24(14)1740-1747
     doi.org/10.1002/jcc.10318
  2. Neese,F.; Wennmohs,F.; Hansen,A.; Becker,U.
     Efficient, approximate and parallel Hartree-Fock and hybrid DFT calculations. A 'chain-of-spheres' algorithm for the Hartree-Fock exchange
     Chem. Phys., 2009 356(1-3)98-109
     doi.org/10.1016/j.chemphys.2008.10.036
  3. Helmich-Paris,B.; de Souza,B.; Neese,F.; Izsák,R.
     An improved chain of spheres for exchange algorithm
     J. Chem. Phys., 2021 155 104109
     doi.org/doi: 10.1063/5.0058766.
  4. Neese,F.
     The SHARK Integral Generation and Digestion System
     J. Comp. Chem., 2022  1-16
     doi.org/10.1002/jcc.26942
  5. Grimme,S.; Antony,J.; Ehrlich,S.; Krieg,H.
     A consistent and accurate ab initio parametrization of density functional dispersion correction (DFT-D) for the 94 elements H-Pu
     J. Chem. Phys., 2010 132 154104
     doi.org/10.1063/1.3382344
  6. Grimme,S.; Ehrlich,S.; Goerigk,L.
     Effect of the damping function in dispersion corrected density functional theory
     J. Comput. Chem., 2011 32(7)1456-1465
     doi.org/10.1002/jcc.21759

List of suggested additional citations. These are papers that are important in the 'surrounding' of 
of this run, or papers that preceded the highly important papers. If you like your results we are grateful for a citation.

  1. Izsak,R.; Neese,F.
     An overlap fitted chain of spheres exchange method
     J. Chem. Phys., 2011 135 144105
     doi.org/10.1063/1.3646921
  2. Izsak,R.; Hansen,A.; Neese,F.
     The resolution of identity and chain of spheres approximations for the LPNO-CCSD singles Fock term
     Molec. Phys., 2012 110 2413-2417
     doi.org/10.1080/00268976.2012.687466
  3. Neese,F.
     The ORCA program system
     WIRES Comput. Molec. Sci., 2012 2(1)73-78
     doi.org/10.1002/wcms.81
  4. Izsak,R.; Neese,F.; Klopper,W.
     Robust fitting techniques in the chain of spheres approximation to the Fock exchange: The role of the complementary space
     J. Chem. Phys., 2013 139 
     doi.org/10.1063/1.4819264
  5. Neese,F.
     Software update: the ORCA program system, version 4.0
     WIRES Comput. Molec. Sci., 2018 8(1)1-6
     doi.org/10.1002/wcms.1327
  6. Neese,F.; Wennmohs,F.; Becker,U.; Riplinger,C.
     The ORCA quantum chemistry program package
     J. Chem. Phys., 2020 152 Art. No. L224108
     doi.org/10.1063/5.0004608

List of optional additional citations

  1. Neese,F.
     Approximate second-order SCF convergence for spin unrestricted wavefunctions
     Chem. Phys. Lett., 2000 325(1-3)93-98
     doi.org/10.1016/s0009-2614(00)00662-x

Timings for individual modules:

Sum of individual times          ...      411.358 sec (=   6.856 min)
Startup calculation              ...       69.496 sec (=   1.158 min)  16.9 %
SCF iterations                   ...      230.041 sec (=   3.834 min)  55.9 %
SCF Gradient evaluation          ...      111.308 sec (=   1.855 min)  27.1 %
Geometry relaxation              ...        0.513 sec (=   0.009 min)   0.1 %
                             ****ORCA TERMINATED NORMALLY****
TOTAL RUN TIME: 0 days 0 hours 7 minutes 45 seconds 452 msec
