
                                 *****************
                                 * O   R   C   A *
                                 *****************

                                            #,                                       
                                            ###                                      
                                            ####                                     
                                            #####                                    
                                            ######                                   
                                           ########,                                 
                                     ,,################,,,,,                         
                               ,,#################################,,                 
                          ,,##########################################,,             
                       ,#########################################, ''#####,          
                    ,#############################################,,   '####,        
                  ,##################################################,,,,####,       
                ,###########''''           ''''###############################       
              ,#####''   ,,,,##########,,,,          '''####'''          '####       
            ,##' ,,,,###########################,,,                        '##       
           ' ,,###''''                  '''############,,,                           
         ,,##''                                '''############,,,,        ,,,,,,###''
      ,#''                                            '''#######################'''  
     '                                                          ''''####''''         
             ,#######,   #######,   ,#######,      ##                                
            ,#'     '#,  ##    ##  ,#'     '#,    #''#        ,####,   ,####,        
            ##       ##  ##   ,#'  ##            #'  '#       #'       #'  '#        
            ##       ##  #######   ##           ,######,      #####,   #    #        
            '#,     ,#'  ##    ##  '#,     ,#' ,#      #,     #,   #   #,  ,#        
             '#######'   ##     ##  '#######'  #'      '#     '####' # '####'        



                #########################################################
                #                        -***-                          #
                #          Department of theory and spectroscopy        #
                #                                                       #
                #                      Frank Neese                      #
                #                                                       #
                #     Directorship, Architecture, Infrastructure        #
                #                    SHARK, DRIVERS                     #
                #        Core code/Algorithms in most modules           #
                #                                                       #
                #        Max Planck Institute fuer Kohlenforschung      #
                #                Kaiser Wilhelm Platz 1                 #
                #                 D-45470 Muelheim/Ruhr                 #
                #                      Germany                          #
                #                                                       #
                #                  All rights reserved                  #
                #                        -***-                          #
                #########################################################


                         Program Version 6.0.1  -  RELEASE   -


 With contributions from (in alphabetic order):
[Max-Planck-Institut fuer Kohlenforschung]                               
  Daniel Aravena         : Magnetic Suceptibility                        
  Michael Atanasov       : Ab Initio Ligand Field Theory (pilot matlab implementation)
  Alexander A. Auer      : GIAO ZORA, VPT2 properties, NMR spectrum      
  Ute Becker             : All parallelization in ORCA, NUMFREQ, NUMCALC 
  Giovanni Bistoni       : ED, misc. LED, open-shell LED, HFLD           
  Martin Brehm           : Molecular dynamics                            
  Dmytro Bykov           : pre 5.0 version of the SCF Hessian            
  Marcos Casanova-Páez   : Triplet and SCS-CIS(D). UHF-(DLPNO)-IP/EA/STEOM-CCSD. UHF-CVS-IP/STEOM-CCSD   
  Vijay G. Chilkuri      : MRCI spin determinant printing, contributions to CSF-ICE 
  Pauline Colinet        : FMM embedding                                 
  Dipayan Datta          : RHF DLPNO-CCSD density                        
  Achintya Kumar Dutta   : EOM-CC, STEOM-CC                              
  Nicolas Foglia         : Exact transition moments, OPA infrastructure, MCD improvements    
  Dmitry Ganyushin       : Spin-Orbit,Spin-Spin,Magnetic field MRCI      
  Miquel Garcia-Rates    : C-PCM and meta-GGA Hessian, CCSD/C-PCM, Gaussian charge scheme 
  Tiago L. C. Gouveia    : GS-ROHF, GS-ROCIS                             
  Yang Guo               : DLPNO-NEVPT2, F12-NEVPT2, CIM, IAO-localization        
  Andreas Hansen         : Spin unrestricted coupled pair/coupled cluster methods 
  Ingolf Harden          : AUTO-CI MPn and infrastructure                
  Benjamin Helmich-Paris : MC-RPA, TRAH-(SCF,CASSCF), AVAS, COSX integrals, SCF dyn. polar. 
  Lee Huntington         : MR-EOM, pCC                                   
  Robert Izsak           : Overlap fitted RIJCOSX, COSX-SCS-MP3, EOM     
  Riya Kayal             : Wick's Theorem for AUTO-CI, AUTO-CI UHF-CCSDT 
  Emily Kempfer          : AUTO-CI, RHF CISDT and CCSDT                  
  Christian Kollmar      : KDIIS, OOCD, Brueckner-CCSD(T), CCSD density, CASPT2, CASPT2-K, improved NEVPT2 
  Axel Koslowski         : Symmetry handling                             
  Simone Kossmann        : meta-GGA functionals, TD-DFT gradient, OOMP2, (MP2 Hessian; deprecated post 5.0) 
  Lucas Lang             : DCDCAS                                        
  Marvin Lechner         : AUTO-CI (C++ implementation), FIC-MRCC        
  Spencer Leger          : CASSCF response                               
  Dagmar Lenk            : GEPOL surface, SMD, ORCA-2-JSON               
  Dimitrios Liakos       : Extrapolation schemes; Compound Job, initial MDCI parallelization 
  Dimitrios Manganas     : Further ROCIS development; embedding schemes. LFT, Crystal Embedding 
  Dimitrios Pantazis     : SARC Basis sets                               
  Anastasios Papadopoulos: AUTO-CI, single reference methods and gradients 
  Taras Petrenko         : pre 6.0 DFT Hessian and TD-DFT gradient, (ASA, deprecated), ECA, 1-Electron XAS/XES, NRVS 
  Peter Pinski           : DLPNO-MP2, DLPNO-MP2 Gradient                 
  Christoph Reimann      : Effective Core Potentials                     
  Marius Retegan         : Local ZFS, SOC                                
  Christoph Riplinger    : Optimizer, TS searches, QM/MM, DLPNO-CCSD(T), (RO)-DLPNO pert. Triples 
  Michael Roemelt        : Original ROCIS implementation                 
  Masaaki Saitow         : Open-shell DLPNO-CCSD energy and density      
  Barbara Sandhoefer     : DKH picture change effects                    
  Kantharuban Sivalingam : CASSCF convergence/infrastructure, NEVPT2 and variants, FIC-MRCI 
  Bernardo de Souza      : ESD, SOC TD-DFT                               
  Georgi L. Stoychev     : AutoAux, RI-MP2 NMR, DLPNO-MP2 response, X2C  
  Van Anh Tran           : RI-MP2 g-tensors                              
  Willem Van den Heuvel  : Paramagnetic NMR                              
  Zikuan Wang            : NOTCH, Electric field optimization            
  Frank Wennmohs         : Technical directorship and infrastructure     
  Hang Xu                : AUTO-CI-Response properties                   
                                                                         
[FACCTs GmbH]                                                            
  Markus Bursch, Miquel Garcia-Rates, Christoph Riplinger, Bernardo de Souza, Georgi L. Stoychev 
                                                                 
  APM, Basis sets (HGBS, AHGBS, def-TZVP (Ac-Lr), def2-XVPD (La-Lu)), CI-OPT, improved COSX, DLPNO-Multilevel,           
  DOCKER, DRACO, updates on ESD, GOAT, IRC, LR-CPCM, MBIS, meta-GGA TD-DFT gradient, ML-optimized integration grids, 
  MM, NACMEs, nearIR, NEB, NEB-TS, NL-DFT gradient (VV10), 2- and 3-layer-ONIOM, interface openCOSMO-RS, QMMM,   
  Crystal-QMMM, SF, symmetry and pop. for TD-DFT, r2SCAN hybrids, SOLVATOR                                   
                                                                         
[Other institutions]                                                     
  V. Asgeirsson          : NEB                                           
  Christoph Bannwarth    : sTDA-DFT, sTD-DFT, PBEh-3c, B97-3c, D3        
  Sebastian Ehlert       : rSCAN, r2SCAN, r2SCAN-3c, D4, dhf basis sets  
  Marvin Friede          : D4 for Fr, Ra, Ac-Lr                          
  Lars Goerigk           : TD-DFT with DH, B97 family of functionals     
  Stefan Grimme          : VdW corrections, initial TS optimization, DFT functionals, gCP, sTDA/sTD-DF 
  Waldemar Hujo          : DFT-NL                                        
  H. Jonsson             : NEB                                           
  Holger Kruse           : gCP                                           
  Marcel Mueller         : wB97X-3c, vDZP basis set                      
  Hagen Neugebauer       : wr2SCAN                                       
  Tobias Risthaus        : range-separated hybrid DFT                    
  Lukas Wittmann         : regularized MP2, r2SCAN double-hybrids, wr2SCAN        
                                                                         
We gratefully acknowledge several colleagues who have allowed us to      
interface, adapt or use parts of their codes:                            
  Ed Valeev, F. Pavosevic, A. Kumar             : LibInt (2-el integral package), F12 methods 
  Garnet Chan, S. Sharma, J. Yang, R. Olivares  : DMRG                   
  Ulf Ekstrom                                   : XCFun DFT Library      
  Mihaly Kallay                                 : mrcc  (arbitrary order and MRCC methods)
  Frank Weinhold                                : gennbo (NPA and NBO analysis)           
  Simon Mueller                                 : openCOSMO-RS                            
  Christopher J. Cramer and Donald G. Truhlar   : smd solvation model                     
  S Lehtola, MJT Oliveira, MAL Marques          : LibXC Library                           
  Liviu Ungur et al                             : ANISO software                          


 Your calculation uses the libint2 library for the computation of 2-el integrals
 For citations please refer to: http://libint.valeyev.net

 Your ORCA version has been built with support for libXC version: 6.2.2
 For citations please refer to: https://libxc.gitlab.io

 This ORCA versions uses:
   CBLAS   interface :  Fast vector & matrix operations
   LAPACKE interface :  Fast linear algebra routines
   SCALAPACK package :  Parallel linear algebra routines
   Shared memory     :  Shared parallel matrices
   BLAS/LAPACK       :  OpenBLAS 0.3.27  USE64BITINT DYNAMIC_ARCH NO_AFFINITY SkylakeX SINGLE_THREADED
        Core in use  :  SkylakeX
   Copyright (c) 2011-2014, The OpenBLAS Project


NOTE: MaxCore=4000 MB was set to SCF,MP2,MDCI,CIPSI,MRCI and CIS
      => If you want to overwrite this, your respective input block should be placed after the MaxCore statement
Your calculation utilizes the atom-pairwise dispersion correction
with the Becke-Johnson damping scheme (D3BJ)


Warning: RI is on but no J-basis has been assigned. Assigning Def2/J (nothing to worry about!)
================================================================================

----- Orbital basis set information -----
Your calculation utilizes the basis: def2-SVP
   F. Weigend and R. Ahlrichs, Phys. Chem. Chem. Phys. 7, 3297 (2005).

----- AuxJ basis set information -----
Your calculation utilizes the auxiliary basis: def2/J
   F. Weigend, Phys. Chem. Chem. Phys. 8, 1057 (2006).

================================================================================
                                        WARNINGS
                       Please study these warnings very carefully!
================================================================================


WARNING: Geometry Optimization
  ===> : Switching off AutoStart
         For restart on a previous wavefunction, please use MOREAD

================================================================================
                                       INPUT FILE
================================================================================
NAME = 4nitroaniline_water_2_OPT_option2.inp
|  1> ! B3LYP def2-SVP OPT TightSCF D3BJ
|  2> 
|  3> 
|  4> %maxcore 4000
|  5> 
|  6> %pal
|  7> nprocs 28
|  8> end
|  9> 
| 10> * xyz 0 1
| 11> O        2.7210600761      1.0832376383     -0.0001510332                 
| 12> O        2.7210794396     -1.0832419814     -0.0004122870                 
| 13> N        2.1503728454     -0.0000218379     -0.0001593443                 
| 14> N       -3.4745380812      0.0000055801      0.0012848393                 
| 15> C        0.6905288595     -0.0000018501      0.0000891668                 
| 16> C       -2.1103810173     -0.0000001179      0.0004401593                 
| 17> C        0.0003351126      1.2162003143      0.0003383714                 
| 18> C        0.0003360811     -1.2162025009      0.0000061340                 
| 19> C       -1.3858459997      1.2163606335      0.0005047746                 
| 20> C       -1.3858468463     -1.2163598600      0.0001728853                 
| 21> H        0.5691142954      2.1455814069      0.0003548830                 
| 22> H        0.5691223088     -2.1455809175     -0.0002270924                 
| 23> H       -1.9290788518      2.1648181612      0.0007315711                 
| 24> H       -1.9290857576     -2.1648142635      0.0001370269                 
| 25> H       -3.9941298338      0.8654646063     -0.0030400889                 
| 26> H       -3.9941426307     -0.8654450113     -0.0032699658                 
| 27> O       -3.2183972414     -1.7883533786     -2.3112346892                 
| 28> H       -2.2675206983     -1.7632303891     -2.4847217106                 
| 29> H       -3.3746172201     -0.9655695071     -1.8279616494                 
| 30> *           
| 31> 
| 32> 
| 33>                          ****END OF INPUT****
================================================================================

                       *****************************
                       * Geometry Optimization Run *
                       *****************************

Geometry optimization settings:
Update method            Update   .... BFGS
Choice of coordinates    CoordSys .... (2022) Redundant Internals
Initial Hessian          InHess   .... Almloef's Model
Max. no of cycles        MaxIter  .... 57

Convergence Tolerances:
Energy Change            TolE     ....  5.0000e-06 Eh
Max. Gradient            TolMAXG  ....  3.0000e-04 Eh/bohr
RMS Gradient             TolRMSG  ....  1.0000e-04 Eh/bohr
Max. Displacement        TolMAXD  ....  4.0000e-03 bohr
RMS Displacement         TolRMSD  ....  2.0000e-03 bohr
Strict Convergence                .... False

------------------------------------------------------------------------------
                        ORCA OPTIMIZATION COORDINATE SETUP
------------------------------------------------------------------------------

The optimization will be done in redundant internal coordinates (2022)
Making redundant internal coordinates   ...  (2022 redundants) done
Evaluating the initial hessian          ...  (Almloef) done
Evaluating the coordinates              ...  done
Calculating the B-matrix                .... done
Calculating the G-matrix                .... done
Diagonalizing the G-matrix              .... done
The first mode is                       ....   63
The number of degrees of freedom        ....   51

    -----------------------------------------------------------------
                    Redundant Internal Coordinates


    -----------------------------------------------------------------
         Definition                    Initial Value    Approx d2E/dq
    -----------------------------------------------------------------
      1. B(N   2,O   1)                  1.2244         0.921024   
      2. B(N   2,O   0)                  1.2244         0.920937   
      3. B(C   4,N   2)                  1.4598         0.432956   
      4. B(C   5,N   3)                  1.3642         0.615327   
      5. B(C   6,C   4)                  1.3984         0.605817   
      6. B(C   7,C   4)                  1.3984         0.605821   
      7. B(C   8,C   5)                  1.4158         0.568302   
      8. B(C   8,C   6)                  1.3862         0.633624   
      9. B(C   9,C   7)                  1.3862         0.633619   
     10. B(C   9,C   5)                  1.4158         0.568305   
     11. B(H  10,C   6)                  1.0896         0.360611   
     12. B(H  11,C   7)                  1.0896         0.360609   
     13. B(H  12,C   8)                  1.0930         0.356138   
     14. B(H  13,C   9)                  1.0930         0.356138   
     15. B(H  14,N   3)                  1.0095         0.433564   
     16. B(H  15,N   3)                  1.0095         0.433563   
     17. B(H  17,O  16)                  0.9669         0.506942   
     18. B(H  18,C   5)                  2.4236         0.002684   
     19. B(H  18,N   3)                  2.0709         0.008783   
     20. B(H  18,H  15)                  1.9296         0.003155   
     21. B(H  18,O  16)                  0.9669         0.506908   
     22. A(O   0,N   2,C   4)          117.7806         0.428361   
     23. A(O   1,N   2,C   4)          117.7838         0.428368   
     24. A(O   0,N   2,O   1)          124.4357         0.488209   
     25. A(C   5,N   3,H  14)          120.9789         0.358328   
     26. A(H  15,N   3,H  18)           67.7345         0.177725   
     27. A(C   5,N   3,H  15)          120.9792         0.358328   
     28. A(C   5,N   3,H  18)           87.2029         0.200430   
     29. A(H  14,N   3,H  15)          118.0390         0.303449   
     30. A(H  14,N   3,H  18)          114.8854         0.177725   
     31. A(N   2,C   4,C   6)          119.5757         0.402864   
     32. A(N   2,C   4,C   7)          119.5741         0.402865   
     33. A(C   6,C   4,C   7)          120.8503         0.430471   
     34. A(C   9,C   5,H  18)           85.6713         0.174376   
     35. A(C   8,C   5,H  18)          127.5369         0.174376   
     36. A(N   3,C   5,H  18)           58.5890         0.175211   
     37. A(C   8,C   5,C   9)          118.4390         0.420731   
     38. A(N   3,C   5,C   9)          120.7807         0.423975   
     39. A(N   3,C   5,C   8)          120.7802         0.423974   
     40. A(C   8,C   6,H  10)          121.4599         0.354296   
     41. A(C   4,C   6,H  10)          118.9586         0.351614   
     42. A(C   4,C   6,C   8)          119.5815         0.433956   
     43. A(C   4,C   7,C   9)          119.5814         0.433956   
     44. A(C   9,C   7,H  11)          121.4604         0.354295   
     45. A(C   4,C   7,H  11)          118.9582         0.351615   
     46. A(C   6,C   8,H  12)          119.8087         0.353547   
     47. A(C   5,C   8,C   6)          120.7739         0.429001   
     48. A(C   5,C   8,H  12)          119.4174         0.347112   
     49. A(C   5,C   9,C   7)          120.7740         0.429001   
     50. A(C   7,C   9,H  13)          119.8090         0.353547   
     51. A(C   5,C   9,H  13)          119.4171         0.347112   
     52. A(N   3,H  15,H  18)           83.3093         0.145932   
     53. A(H  17,O  16,H  18)          103.0885         0.319174   
     54. A(N   3,H  18,O  16)          147.7848         0.180920   
     55. A(H  15,H  18,O  16)          124.6570         0.147982   
     56. A(N   3,H  18,C   5)           34.2082         0.117401   
     57. A(C   5,H  18,H  15)           55.4863         0.107224   
     58. A(C   5,H  18,O  16)          129.1837         0.160116   
     59. A(N   3,H  18,H  15)           28.9562         0.112555   
     60. D(C   7,C   4,N   2,O   0)    179.9961         0.014764   
     61. D(C   6,C   4,N   2,O   0)     -0.0006         0.014764   
     62. D(C   7,C   4,N   2,O   1)     -0.0012         0.014764   
     63. D(C   6,C   4,N   2,O   1)   -179.9980         0.014764   
     64. D(C   8,C   5,N   3,H  14)      0.3318         0.035813   
     65. D(C   9,C   5,N   3,H  18)    -62.1802         0.035813   
     66. D(C   9,C   5,N   3,H  15)     -0.3314         0.035813   
     67. D(C   9,C   5,N   3,H  14)   -179.7009         0.035813   
     68. D(C   8,C   5,N   3,H  15)    179.7013         0.035813   
     69. D(C   8,C   5,N   3,H  18)    117.8525         0.035813   
     70. D(H  10,C   6,C   4,C   7)   -179.9975         0.025328   
     71. D(C   8,C   6,C   4,C   7)     -0.0000         0.025328   
     72. D(C   8,C   6,C   4,N   2)    179.9967         0.025328   
     73. D(H  10,C   6,C   4,N   2)     -0.0008         0.025328   
     74. D(C   9,C   7,C   4,N   2)   -179.9967         0.025328   
     75. D(H  11,C   7,C   4,C   6)    179.9977         0.025328   
     76. D(H  11,C   7,C   4,N   2)      0.0010         0.025328   
     77. D(C   9,C   7,C   4,C   6)      0.0000         0.025328   
     78. D(H  12,C   8,C   5,C   9)   -179.9987         0.024046   
     79. D(C   5,C   8,C   6,C   4)      0.0007         0.027857   
     80. D(C   5,C   8,C   6,H  10)    179.9981         0.027857   
     81. D(H  12,C   8,C   5,N   3)     -0.0307         0.024046   
     82. D(H  12,C   8,C   6,C   4)    179.9981         0.027857   
     83. D(C   6,C   8,C   5,H  18)   -107.9325         0.024046   
     84. D(H  12,C   8,C   6,H  10)     -0.0045         0.027857   
     85. D(C   6,C   8,C   5,C   9)     -0.0013         0.024046   
     86. D(C   6,C   8,C   5,N   3)    179.9667         0.024046   
     87. D(H  13,C   9,C   5,N   3)      0.0309         0.024046   
     88. D(C   7,C   9,C   5,H  18)    130.8357         0.024046   
     89. D(C   7,C   9,C   5,C   8)      0.0013         0.024046   
     90. D(C   7,C   9,C   5,N   3)   -179.9667         0.024046   
     91. D(H  13,C   9,C   7,H  11)      0.0040         0.027857   
     92. D(H  13,C   9,C   7,C   4)   -179.9983         0.027857   
     93. D(C   5,C   9,C   7,H  11)   -179.9983         0.027857   
     94. D(C   5,C   9,C   7,C   4)     -0.0007         0.027857   
     95. D(H  13,C   9,C   5,C   8)    179.9989         0.024046   
     96. D(H  18,H  15,N   3,H  14)    107.2848         0.240890   
     97. D(H  18,H  15,N   3,C   5)    -72.1028         0.240890   
     98. D(N   3,H  18,O  16,H  17)    -90.2466         0.359117   
     99. D(H  15,H  18,O  16,H  17)   -116.3240         0.359117   
    100. D(C   5,H  18,H  15,N   3)     33.8708         0.001599   
    101. D(O  16,H  18,H  15,N   3)    151.0504         0.001599   
    102. D(H  15,H  18,C   5,C   9)    101.6771         0.001504   
    103. D(H  15,H  18,C   5,C   8)   -135.3582         0.001504   
    104. D(H  15,H  18,C   5,N   3)    -28.6814         0.001504   
    105. D(O  16,H  18,C   5,C   9)     -7.5829         0.001504   
    106. D(O  16,H  18,C   5,C   8)    115.3818         0.001504   
    107. D(O  16,H  18,C   5,N   3)   -137.9414         0.001504   
    108. D(C   5,H  18,N   3,H  14)    123.0532         0.001552   
    109. D(H  15,H  18,N   3,H  14)   -111.7164         0.001552   
    110. D(H  15,H  18,N   3,C   5)    125.2304         0.001552   
    111. D(O  16,H  18,N   3,H  15)    -48.3201         0.001552   
    112. D(O  16,H  18,N   3,H  14)   -160.0365         0.001552   
    113. D(C   5,H  18,O  16,H  17)    -45.2990         0.359117   
    114. D(O  16,H  18,N   3,C   5)     76.9103         0.001552   
    -----------------------------------------------------------------

Number of atoms                         .... 19
Number of degrees of freedom            .... 114


         *************************************************************
         *                GEOMETRY OPTIMIZATION CYCLE   1            *
         *************************************************************
---------------------------------
CARTESIAN COORDINATES (ANGSTROEM)
---------------------------------
  O      2.721060    1.083238   -0.000151
  O      2.721079   -1.083242   -0.000412
  N      2.150373   -0.000022   -0.000159
  N     -3.474538    0.000006    0.001285
  C      0.690529   -0.000002    0.000089
  C     -2.110381   -0.000000    0.000440
  C      0.000335    1.216200    0.000338
  C      0.000336   -1.216203    0.000006
  C     -1.385846    1.216361    0.000505
  C     -1.385847   -1.216360    0.000173
  H      0.569114    2.145581    0.000355
  H      0.569122   -2.145581   -0.000227
  H     -1.929079    2.164818    0.000732
  H     -1.929086   -2.164814    0.000137
  H     -3.994130    0.865465   -0.003040
  H     -3.994143   -0.865445   -0.003270
  O     -3.218397   -1.788353   -2.311235
  H     -2.267521   -1.763230   -2.484722
  H     -3.374617   -0.965570   -1.827962

----------------------------
CARTESIAN COORDINATES (A.U.)
----------------------------
  NO LB      ZA    FRAG     MASS         X           Y           Z
   0 O     8.0000    0    15.999    5.142058    2.047022   -0.000285
   1 O     8.0000    0    15.999    5.142095   -2.047031   -0.000779
   2 N     7.0000    0    14.007    4.063616   -0.000041   -0.000301
   3 N     7.0000    0    14.007   -6.565925    0.000011    0.002428
   4 C     6.0000    0    12.011    1.304910   -0.000003    0.000169
   5 C     6.0000    0    12.011   -3.988042   -0.000000    0.000832
   6 C     6.0000    0    12.011    0.000633    2.298286    0.000639
   7 C     6.0000    0    12.011    0.000635   -2.298290    0.000012
   8 C     6.0000    0    12.011   -2.618869    2.298588    0.000954
   9 C     6.0000    0    12.011   -2.618871   -2.298587    0.000327
  10 H     1.0000    0     1.008    1.075470    4.054561    0.000671
  11 H     1.0000    0     1.008    1.075485   -4.054560   -0.000429
  12 H     1.0000    0     1.008   -3.645431    4.090913    0.001382
  13 H     1.0000    0     1.008   -3.645444   -4.090906    0.000259
  14 H     1.0000    0     1.008   -7.547812    1.635491   -0.005745
  15 H     1.0000    0     1.008   -7.547836   -1.635454   -0.006179
  16 O     8.0000    0    15.999   -6.081889   -3.379498   -4.367601
  17 H     1.0000    0     1.008   -4.284993   -3.332023   -4.695444
  18 H     1.0000    0     1.008   -6.377102   -1.824662   -3.454347

--------------------------------
INTERNAL COORDINATES (ANGSTROEM)
--------------------------------
 O      0   0   0     0.000000000000     0.00000000     0.00000000
 O      1   0   0     2.166479635539     0.00000000     0.00000000
 N      2   1   0     1.224365941999    27.78249117     0.00000000
 N      3   2   1     5.624911112062   117.78328430   180.00274693
 C      3   2   1     1.459844007189   117.78378890   179.99714389
 C      4   3   2     1.364157325423     0.02076676   269.89537583
 C      5   3   2     1.398397359499   119.57566102   180.00203538
 C      5   3   2     1.398395545351   119.57408595     0.00000000
 C      7   5   3     1.386181131559   119.58150275   179.99669279
 C      8   5   3     1.386182946361   119.58137506   180.00328856
 H      7   5   3     1.089614140116   118.95858364     0.00000000
 H      8   5   3     1.089615559937   118.95819850     0.00000000
 H      9   7   5     1.093011283056   119.80872448   179.99807549
 H     10   8   5     1.093011560577   119.80895791   180.00170935
 H      4   3   2     1.009462045054   120.97904178   180.30078088
 H      4   3   2     1.009462411517   120.97931401   359.69525703
 O     16   4   3     2.603889768771    98.88902092   296.47952598
 H     17  16   4     0.966899742173   116.28307744    47.70818534
 H     17  16   4     0.966918203336    37.55775254   330.88346930

---------------------------
INTERNAL COORDINATES (A.U.)
---------------------------
 O      0   0   0     0.000000000000     0.00000000     0.00000000
 O      1   0   0     4.094053185886     0.00000000     0.00000000
 N      2   1   0     2.313716318079    27.78249117     0.00000000
 N      3   2   1    10.629541529448   117.78328430   180.00274693
 C      3   2   1     2.758705371833   117.78378890   179.99714389
 C      4   3   2     2.577883748632     0.02076676   269.89537583
 C      5   3   2     2.642588035852   119.57566102   180.00203538
 C      5   3   2     2.642584607608   119.57408595     0.00000000
 C      7   5   3     2.619502710655   119.58150275   179.99669279
 C      8   5   3     2.619506140135   119.58137506   180.00328856
 H      7   5   3     2.059072316468   118.95858364     0.00000000
 H      8   5   3     2.059074999541   118.95819850     0.00000000
 H      9   7   5     2.065491986262   119.80872448   179.99807549
 H     10   8   5     2.065492510700   119.80895791   180.00170935
 H      4   3   2     1.907606807740   120.97904178   180.30078088
 H      4   3   2     1.907607500254   120.97931401   359.69525703
 O     16   4   3     4.920638545897    98.88902092   296.47952598
 H     17  16   4     1.827175711665   116.28307744    47.70818534
 H     17  16   4     1.827210598209    37.55775254   330.88346930

---------------------
BASIS SET INFORMATION
---------------------
There are 4 groups of distinct atoms

 Group   1 Type O   : 7s4p1d contracted to 3s2p1d pattern {511/31/1}
 Group   2 Type N   : 7s4p1d contracted to 3s2p1d pattern {511/31/1}
 Group   3 Type C   : 7s4p1d contracted to 3s2p1d pattern {511/31/1}
 Group   4 Type H   : 4s1p contracted to 2s1p pattern {31/1}

Atom   0O    basis set group =>   1
Atom   1O    basis set group =>   1
Atom   2N    basis set group =>   2
Atom   3N    basis set group =>   2
Atom   4C    basis set group =>   3
Atom   5C    basis set group =>   3
Atom   6C    basis set group =>   3
Atom   7C    basis set group =>   3
Atom   8C    basis set group =>   3
Atom   9C    basis set group =>   3
Atom  10H    basis set group =>   4
Atom  11H    basis set group =>   4
Atom  12H    basis set group =>   4
Atom  13H    basis set group =>   4
Atom  14H    basis set group =>   4
Atom  15H    basis set group =>   4
Atom  16O    basis set group =>   1
Atom  17H    basis set group =>   4
Atom  18H    basis set group =>   4
---------------------------------
AUXILIARY/J BASIS SET INFORMATION
---------------------------------
There are 4 groups of distinct atoms

 Group   1 Type O   : 12s5p4d2f1g contracted to 6s4p3d1f1g pattern {711111/2111/211/2/1}
 Group   2 Type N   : 12s5p4d2f1g contracted to 6s4p3d1f1g pattern {711111/2111/211/2/1}
 Group   3 Type C   : 12s5p4d2f1g contracted to 6s4p3d1f1g pattern {711111/2111/211/2/1}
 Group   4 Type H   : 5s2p1d contracted to 3s1p1d pattern {311/2/1}

Atom   0O    basis set group =>   1
Atom   1O    basis set group =>   1
Atom   2N    basis set group =>   2
Atom   3N    basis set group =>   2
Atom   4C    basis set group =>   3
Atom   5C    basis set group =>   3
Atom   6C    basis set group =>   3
Atom   7C    basis set group =>   3
Atom   8C    basis set group =>   3
Atom   9C    basis set group =>   3
Atom  10H    basis set group =>   4
Atom  11H    basis set group =>   4
Atom  12H    basis set group =>   4
Atom  13H    basis set group =>   4
Atom  14H    basis set group =>   4
Atom  15H    basis set group =>   4
Atom  16O    basis set group =>   1
Atom  17H    basis set group =>   4
Atom  18H    basis set group =>   4
--------------------------------------------------------------------------
By default, for Open MPI 4.0 and later, infiniband ports on a device
are not used by default.  The intent is to use UCX for these devices.
You can override this policy by setting the btl_openib_allow_ib MCA parameter
to true.

  Local host:              psid01
  Local adapter:           mlx5_0
  Local port:              1

--------------------------------------------------------------------------
--------------------------------------------------------------------------
WARNING: There was an error initializing an OpenFabrics device.

  Local host:   psid01
  Local device: mlx5_0
--------------------------------------------------------------------------


           ************************************************************
           *        Program running with 28 parallel MPI-processes    *
           *              working on a common directory               *
           ************************************************************
------------------------------------------------------------------------------
                             ORCA STARTUP CALCULATIONS
                           -- RI-GTO INTEGRALS CHOSEN --
------------------------------------------------------------------------------
------------------------------------------------------------------------------
                   ___                                                        
                  /   \      - P O W E R E D   B Y -                         
                 /     \                                                     
                 |  |  |   _    _      __       _____    __    __             
                 |  |  |  | |  | |    /  \     |  _  \  |  |  /  |          
                  \  \/   | |  | |   /    \    | | | |  |  | /  /          
                 / \  \   | |__| |  /  /\  \   | |_| |  |  |/  /          
                |  |  |   |  __  | /  /__\  \  |    /   |      \           
                |  |  |   | |  | | |   __   |  |    \   |  |\   \          
                \     /   | |  | | |  |  |  |  | |\  \  |  | \   \       
                 \___/    |_|  |_| |__|  |__|  |_| \__\ |__|  \__/        
                                                                              
                      - O R C A' S   B I G   F R I E N D -                    
                                      &                                       
                       - I N T E G R A L  F E E D E R -                       
                                                                              
 v1 FN, 2020, v2 2021, v3 2022-2024                                           
------------------------------------------------------------------------------


----------------------
SHARK INTEGRAL PACKAGE
----------------------

Number of atoms                             ...     19
Number of basis functions                   ...    194
Number of shells                            ...     90
Maximum angular momentum                    ...      2
Integral batch strategy                     ... SHARK/LIBINT Hybrid
RI-J (if used) integral strategy            ... SPLIT-RIJ (Revised 2003 algorithm where possible)
Printlevel                                  ...      1
Contraction scheme used                     ... SEGMENTED contraction
Prescreening option                         ... SCHWARTZ
   Thresh                                   ... 2.500e-11
   Tcut                                     ... 2.500e-12
   Tpresel                                  ... 2.500e-12 
Coulomb Range Separation                    ... NOT USED
Exchange Range Separation                   ... NOT USED
Multipole approximations                    ... NOT USED
Finite Nucleus Model                        ... NOT USED
CABS basis                                  ... NOT available
Auxiliary Coulomb fitting basis             ... AVAILABLE
   # of basis functions in Aux-J            ...    627
   # of shells in Aux-J                     ...    205
   Maximum angular momentum in Aux-J        ...      4
Auxiliary J/K fitting basis                 ... NOT available
Auxiliary Correlation fitting basis         ... NOT available
Auxiliary 'external' fitting basis          ... NOT available

Checking pre-screening integrals            ... done (  0.0 sec) Dimension = 90
Check shell pair data                       ... done (  0.0 sec)
Shell pair information
Shell pair cut-off parameter TPreSel        ...   2.5e-12
Total number of shell pairs                 ...      4095
Shell pairs after pre-screening             ...      3585
Total number of primitive shell pairs       ...     15045
Primitive shell pairs kept                  ...      9206
          la=0 lb=0:   1082 shell pairs
          la=1 lb=0:   1302 shell pairs
          la=1 lb=1:    416 shell pairs
          la=2 lb=0:    452 shell pairs
          la=2 lb=1:    279 shell pairs
          la=2 lb=2:     54 shell pairs

Calculating one electron integrals          ... done (  0.0 sec)
Calculating RI/J V-Matrix + Cholesky decomp.... done (  0.0 sec)
Calculating Nuclear repulsion               ... done (  0.0 sec) ENN=    595.256866633249 Eh

Diagonalization of the overlap matrix:
Smallest eigenvalue                        ... 2.506e-04
Time for diagonalization                   ...    0.004 sec
Threshold for overlap eigenvalues          ... 1.000e-07
Number of eigenvalues below threshold      ... 0
Time for construction of square roots      ...    0.003 sec
Total time needed                          ...    0.013 sec

-------------------
DFT GRID GENERATION
-------------------

General Integration Accuracy     IntAcc      ... 4.388
Radial Grid Type                 RadialGrid  ... OptM3 with GC (2021)
Angular Grid (max. ang.)         AngularGrid ... 4 (Lebedev-302)
Angular grid pruning method      GridPruning ... 4 (adaptive)
Weight generation scheme         WeightScheme... mBecke (2022)
Basis function cutoff            BFCut       ... 1.0000e-11
Integration weight cutoff        WCut        ... 1.0000e-14
Partially contracted basis set               ... off
Rotationally invariant grid construction     ... off
Angular grids for H and He will be reduced by one unit

Total number of grid points                  ...    91962
Total number of batches                      ...     1447
Average number of points per batch           ...       63
Average number of grid points per atom       ...     4840

--------------------
COSX GRID GENERATION
--------------------

GRIDX 1
-------
General Integration Accuracy     IntAcc      ... 3.816
Radial Grid Type                 RadialGrid  ... OptM3 with GC (2021)
Angular Grid (max. ang.)         AngularGrid ... 1 (Lebedev-50)
Angular grid pruning method      GridPruning ... 4 (adaptive)
Weight generation scheme         WeightScheme... mBecke (2022)
Basis function cutoff            BFCut       ... 1.0000e-11
Integration weight cutoff        WCut        ... 1.0000e-14
Partially contracted basis set               ... on
Rotationally invariant grid construction     ... off
Angular grids for H and He will be reduced by one unit

Total number of grid points                  ...    11739
Total number of batches                      ...      102
Average number of points per batch           ...      115
Average number of grid points per atom       ...      618
UseSFitting                                  ... on

GRIDX 2
-------
General Integration Accuracy     IntAcc      ... 4.020
Radial Grid Type                 RadialGrid  ... OptM3 with GC (2021)
Angular Grid (max. ang.)         AngularGrid ... 2 (Lebedev-110)
Angular grid pruning method      GridPruning ... 4 (adaptive)
Weight generation scheme         WeightScheme... mBecke (2022)
Basis function cutoff            BFCut       ... 1.0000e-11
Integration weight cutoff        WCut        ... 1.0000e-14
Partially contracted basis set               ... on
Rotationally invariant grid construction     ... off
Angular grids for H and He will be reduced by one unit

Total number of grid points                  ...    25789
Total number of batches                      ...      211
Average number of points per batch           ...      122
Average number of grid points per atom       ...     1357
UseSFitting                                  ... on

GRIDX 3
-------
General Integration Accuracy     IntAcc      ... 4.338
Radial Grid Type                 RadialGrid  ... OptM3 with GC (2021)
Angular Grid (max. ang.)         AngularGrid ... 3 (Lebedev-194)
Angular grid pruning method      GridPruning ... 4 (adaptive)
Weight generation scheme         WeightScheme... mBecke (2022)
Basis function cutoff            BFCut       ... 1.0000e-11
Integration weight cutoff        WCut        ... 1.0000e-14
Partially contracted basis set               ... on
Rotationally invariant grid construction     ... off
Angular grids for H and He will be reduced by one unit

Total number of grid points                  ...    56761
Total number of batches                      ...      453
Average number of points per batch           ...      125
Average number of grid points per atom       ...     2987
UseSFitting                                  ... on
Initializing property integral containers    ... done (  0.0 sec)

SHARK setup successfully completed in   1.0 seconds

Maximum memory used throughout the entire STARTUP-calculation: 23.6 MB
[psid01:101732] 27 more processes have sent help message help-mpi-btl-openib.txt / ib port not selected
[psid01:101732] Set MCA parameter "orte_base_help_aggregate" to 0 to see all help / error messages
[psid01:101732] 27 more processes have sent help message help-mpi-btl-openib.txt / error in device init
--------------------------------------------------------------------------
By default, for Open MPI 4.0 and later, infiniband ports on a device
are not used by default.  The intent is to use UCX for these devices.
You can override this policy by setting the btl_openib_allow_ib MCA parameter
to true.

  Local host:              psid01
  Local adapter:           mlx5_0
  Local port:              1

--------------------------------------------------------------------------
--------------------------------------------------------------------------
WARNING: There was an error initializing an OpenFabrics device.

  Local host:   psid01
  Local device: mlx5_0
--------------------------------------------------------------------------


           ************************************************************
           *        Program running with 28 parallel MPI-processes    *
           *              working on a common directory               *
           ************************************************************
-------------------------------------------------------------------------------
                                 ORCA GUESS
                   Start orbitals & Density for SCF / CASSCF
-------------------------------------------------------------------------------

------------
SCF SETTINGS
------------
Hamiltonian:
 Density Functional     Method          .... DFT(GTOs)
 Exchange Functional    Exchange        .... B88
   X-Alpha parameter    XAlpha          ....  0.666667
   Becke's b parameter  XBeta           ....  0.004200
 Correlation Functional Correlation     .... LYP
 LDA part of GGA corr.  LDAOpt          .... VWN-5
 Gradients option       PostSCFGGA      .... off
 Hybrid DFT is turned on
   Fraction HF Exchange ScalHFX         ....  0.200000
   Scaling of DF-GGA-X  ScalDFX         ....  0.720000
   Scaling of DF-GGA-C  ScalDFC         ....  0.810000
   Scaling of DF-LDA-C  ScalLDAC        ....  1.000000
   Perturbative correction              ....  0.000000
   NL short-range parameter             ....  4.800000
 RI-approximation to the Coulomb term is turned on
   Number of AuxJ basis functions       .... 627
   RIJ-COSX (HFX calculated with COS-X)).... on


General Settings:
 Integral files         IntName         .... 4nitroaniline_water_2_OPT_option2
 Hartree-Fock type      HFTyp           .... RHF
 Total Charge           Charge          ....    0
 Multiplicity           Mult            ....    1
 Number of Electrons    NEL             ....   82
 Basis Dimension        Dim             ....  194
 Nuclear Repulsion      ENuc            ....    595.2568666332 Eh

Convergence Acceleration:
 AO-DIIS                CNVDIIS         .... on
   Start iteration      DIISMaxIt       ....    12
   Startup error        DIISStart       ....  0.200000
   # of expansion vecs  DIISMaxEq       ....     5
   Bias factor          DIISBfac        ....   1.050
   Max. coefficient     DIISMaxC        ....  10.000
 MO-DIIS                CNVKDIIS        .... off
 Trust-Rad. Augm. Hess. CNVTRAH         .... auto
   Auto Start mean grad. ratio tolernc. ....  1.125000
   Auto Start start iteration           ....    50
   Auto Start num. interpolation iter.  ....    10
   Max. Number of Micro iterations      ....    24
   Max. Number of Macro iterations      .... Maxiter - #DIIS iter
   Number of Davidson start vectors     ....     2
   Converg. threshold    (grad. norm)   ....   1.000e-05
   Grad. Scal. Fac. for Micro threshold ....   0.100
   Minimum threshold for Micro iter.    ....   1.000e-02
   NR start threshold (gradient norm)   ....   1.000e-04
   Initial trust radius                 ....   0.400
   Minimum AH scaling param. (alpha)    ....   1.000
   Maximum AH scaling param. (alpha)    .... 1000.000
   Quad. conv. algorithm                .... NR
   White noise on init. David. guess    .... on
   Maximum white noise                  ....   0.010
   Pseudo random numbers                .... off
   Inactive MOs                         .... canonical
   Orbital update algorithm             .... Taylor
   Preconditioner                       .... Diag
   Full preconditioner red. dimension   ....   250
 SOSCF                  CNVSOSCF        .... on
   Start iteration      SOSCFMaxIt      ....   150
   Startup grad/error   SOSCFStart      ....  0.003300
   Hessian update       SOSCFHessUp     .... L-BFGS
 Level Shifting         CNVShift        .... on
   Level shift para.    LevelShift      ....    0.2500
   Turn off err/grad.   ShiftErr        ....    0.0010
 Zerner damping         CNVZerner       .... off
 Static damping         CNVDamp         .... on
   Fraction old density DampFac         ....    0.7000
   Max. Damping (<1)    DampMax         ....    0.9800
   Min. Damping (>=0)   DampMin         ....    0.0000
   Turn off err/grad.   DampErr         ....    0.1000

SCF Procedure:
 Maximum # iterations   MaxIter         ....   125
 SCF integral mode      SCFMode         .... Direct
   Integral package                     .... SHARK and LIBINT hybrid scheme
 Reset frequency        DirectResetFreq ....    20
 Integral Threshold     Thresh          ....  2.500e-11 Eh
 Primitive CutOff       TCut            ....  2.500e-12 Eh

Convergence Tolerance:
 Convergence Check Mode ConvCheckMode   .... Total+1el-Energy
 Convergence forced     ConvForced      .... 0
 Energy Change          TolE            ....  1.000e-08 Eh
 1-El. energy change                    ....  1.000e-05 Eh
 Orbital Gradient       TolG            ....  1.000e-05
 Orbital Rotation angle TolX            ....  1.000e-05
 DIIS Error             TolErr          ....  5.000e-07

------------------------------
INITIAL GUESS: MODEL POTENTIAL
------------------------------
Loading Hartree-Fock densities                     ... done
Calculating cut-offs                               ... done
Initializing the effective Hamiltonian             ... done
Setting up the integral package (SHARK)            ... done
Starting the Coulomb interaction                   ... done (   0.0 sec)
Making the grid                                    ... done (   0.1 sec)
Mapping shells                                     ... done
Starting the XC term evaluation                    ... done (   0.0 sec)
  promolecular density results
     # of electrons  =     82.000381311
     EX              =    -70.974513229
     EC              =     -2.837198699
     EX+EC           =    -73.811711928
Transforming the Hamiltonian                       ... done (   0.0 sec)
Diagonalizing the Hamiltonian                      ... done (   0.0 sec)
Back transforming the eigenvectors                 ... done (   0.0 sec)
Now organizing SCF variables                       ... done
                      ------------------
                      INITIAL GUESS DONE (   0.2 sec)
                      ------------------
             **** ENERGY FILE WAS UPDATED (4nitroaniline_water_2_OPT_option2.en.tmp) ****
Finished Guess after   1.0 sec
Maximum memory used throughout the entire GUESS-calculation: 13.6 MB
[psid01:101836] 27 more processes have sent help message help-mpi-btl-openib.txt / ib port not selected
[psid01:101836] Set MCA parameter "orte_base_help_aggregate" to 0 to see all help / error messages
[psid01:101836] 27 more processes have sent help message help-mpi-btl-openib.txt / error in device init
--------------------------------------------------------------------------
By default, for Open MPI 4.0 and later, infiniband ports on a device
are not used by default.  The intent is to use UCX for these devices.
You can override this policy by setting the btl_openib_allow_ib MCA parameter
to true.

  Local host:              psid01
  Local adapter:           mlx5_0
  Local port:              1

--------------------------------------------------------------------------
--------------------------------------------------------------------------
WARNING: There was an error initializing an OpenFabrics device.

  Local host:   psid01
  Local device: mlx5_0
--------------------------------------------------------------------------


           ************************************************************
           *        Program running with 28 parallel MPI-processes    *
           *              working on a common directory               *
           ************************************************************

-------------------------------------------------------------------------------------------
                                      ORCA LEAN-SCF
                              memory conserving SCF solver
-------------------------------------------------------------------------------------------

----------------------------------------D-I-I-S--------------------------------------------
Iteration    Energy (Eh)           Delta-E    RMSDP     MaxDP     DIISErr   Damp  Time(sec)
-------------------------------------------------------------------------------------------
               ***  Starting incremental Fock matrix formation  ***
    1    -567.4453759348136828     0.00e+00  4.06e-03  8.74e-02  2.99e-01  0.700   0.4
    2    -567.6224962481596776    -1.77e-01  2.55e-03  4.74e-02  1.26e-01  0.700   0.4
                               ***Turning on AO-DIIS***
    3    -567.6846500651779479    -6.22e-02  1.11e-03  1.67e-02  3.84e-02  0.700   0.3
    4    -567.7243709414008208    -3.97e-02  1.96e-03  3.00e-02  1.75e-02  0.000   0.3
    5    -567.8134354205990348    -8.91e-02  3.63e-04  9.76e-03  5.83e-03  0.000   0.3
                              *** Initializing SOSCF ***
---------------------------------------S-O-S-C-F--------------------------------------
Iteration    Energy (Eh)           Delta-E    RMSDP     MaxDP     MaxGrad    Time(sec)
--------------------------------------------------------------------------------------
    6    -567.8138988222947319    -4.63e-04  1.28e-04  4.05e-03  1.55e-03     0.4
               *** Restarting incremental Fock matrix formation ***
    7    -567.8138620873128275     3.67e-05  7.91e-05  1.94e-03  3.64e-04     0.4
    8    -567.8138616807236758     4.07e-07  3.42e-05  8.20e-04  4.61e-04     0.3
    9    -567.8138668516055532    -5.17e-06  1.74e-05  2.71e-04  8.99e-05     0.3
   10    -567.8138668155424966     3.61e-08  8.74e-06  1.55e-04  1.08e-04     0.3
   11    -567.8138671768006134    -3.61e-07  4.46e-06  1.56e-04  4.72e-05     0.3
   12    -567.8138671648102900     1.20e-08  2.69e-06  8.30e-05  5.67e-05     0.3
   13    -567.8138671951567176    -3.03e-08  9.43e-07  1.96e-05  5.61e-06     0.3
[psid01:101928] 27 more processes have sent help message help-mpi-btl-openib.txt / ib port not selected
[psid01:101928] Set MCA parameter "orte_base_help_aggregate" to 0 to see all help / error messages
[psid01:101928] 27 more processes have sent help message help-mpi-btl-openib.txt / error in device init
   14    -567.8138671906524451     4.50e-09  5.24e-07  1.12e-05  7.59e-06     0.3
                 **** Energy Check signals convergence ****

               *****************************************************
               *                     SUCCESS                       *
               *           SCF CONVERGED AFTER  14 CYCLES          *
               *****************************************************

Recomputing exchange energy using gridx3       ... done (    0.389 sec)
Old exchange energy                            :    -14.334876088 Eh
New exchange energy                            :    -14.334890575 Eh
Exchange energy change after final integration :     -0.000014487 Eh
Total energy after final integration           :   -567.813881677 Eh
             **** ENERGY FILE WAS UPDATED (4nitroaniline_water_2_OPT_option2.en.tmp) ****

----------------
TOTAL SCF ENERGY
----------------

Total Energy       :       -567.81388167727789 Eh          -15451.00123 eV

Components:
Nuclear Repulsion  :        595.25686663324882 Eh           16197.76282 eV
Electronic Energy  :      -1163.07073382390126 Eh          -31648.76366 eV
One Electron Energy:      -1953.86734525156544 Eh          -53167.43344 eV
Two Electron Energy:        790.79661142766417 Eh           21518.66978 eV

Virial components:
Potential Energy   :      -1130.96297378476538 Eh          -30775.06709 eV
Kinetic Energy     :        563.14909210748738 Eh           15324.06586 eV
Virial Ratio       :          2.00828340067518

DFT components:
N(Alpha)           :       40.999998229780 electrons
N(Beta)            :       40.999998229780 electrons
N(Total)           :       81.999996459559 electrons
E(X)               :      -57.081939018151 Eh       
E(C)               :       -3.342539844536 Eh       
E(XC)              :      -60.424478862687 Eh       

---------------
SCF CONVERGENCE
---------------

  Last Energy change         ...   -4.5043e-09  Tolerance :   1.0000e-08
  Last MAX-Density change    ...    1.1238e-05  Tolerance :   1.0000e-07
  Last RMS-Density change    ...    5.2354e-07  Tolerance :   5.0000e-09
  Last DIIS Error            ...    1.5546e-03  Tolerance :   5.0000e-07
  Last Orbital Gradient      ...    7.5872e-06  Tolerance :   1.0000e-05
  Last Orbital Rotation      ...    4.6733e-06  Tolerance :   1.0000e-05


----------------
ORBITAL ENERGIES
----------------

  NO   OCC          E(Eh)            E(eV) 
   0   2.0000     -19.148339      -521.0528 
   1   2.0000     -19.148308      -521.0519 
   2   2.0000     -19.123959      -520.3894 
   3   2.0000     -14.547243      -395.8506 
   4   2.0000     -14.378486      -391.2585 
   5   2.0000     -10.267329      -279.3882 
   6   2.0000     -10.236444      -278.5478 
   7   2.0000     -10.218541      -278.0606 
   8   2.0000     -10.218042      -278.0471 
   9   2.0000     -10.213007      -277.9100 
  10   2.0000     -10.210466      -277.8409 
  11   2.0000      -1.208314       -32.8799 
  12   2.0000      -1.033474       -28.1223 
  13   2.0000      -0.986814       -26.8526 
  14   2.0000      -0.952673       -25.9235 
  15   2.0000      -0.872533       -23.7428 
  16   2.0000      -0.787217       -21.4213 
  17   2.0000      -0.768106       -20.9012 
  18   2.0000      -0.689038       -18.7497 
  19   2.0000      -0.643108       -17.4998 
  20   2.0000      -0.597197       -16.2506 
  21   2.0000      -0.561200       -15.2710 
  22   2.0000      -0.559752       -15.2316 
  23   2.0000      -0.534816       -14.5531 
  24   2.0000      -0.528953       -14.3936 
  25   2.0000      -0.516630       -14.0582 
  26   2.0000      -0.496464       -13.5095 
  27   2.0000      -0.464416       -12.6374 
  28   2.0000      -0.461858       -12.5678 
  29   2.0000      -0.448184       -12.1957 
  30   2.0000      -0.427639       -11.6367 
  31   2.0000      -0.426080       -11.5942 
  32   2.0000      -0.372794       -10.1442 
  33   2.0000      -0.371702       -10.1145 
  34   2.0000      -0.346688        -9.4339 
  35   2.0000      -0.302566        -8.2332 
  36   2.0000      -0.300610        -8.1800 
  37   2.0000      -0.298933        -8.1344 
  38   2.0000      -0.281773        -7.6674 
  39   2.0000      -0.280959        -7.6453 
  40   2.0000      -0.240042        -6.5319 
  41   0.0000      -0.077827        -2.1178 
  42   0.0000      -0.032430        -0.8825 
  43   0.0000       0.009458         0.2574 
  44   0.0000       0.027691         0.7535 
  45   0.0000       0.061590         1.6759 
  46   0.0000       0.064555         1.7566 
  47   0.0000       0.081852         2.2273 
  48   0.0000       0.113833         3.0976 
  49   0.0000       0.129725         3.5300 
  50   0.0000       0.140099         3.8123 
  51   0.0000       0.152844         4.1591 
*Only the first 10 virtual orbitals were printed.

                    ********************************
                    * MULLIKEN POPULATION ANALYSIS *
                    ********************************

-----------------------
MULLIKEN ATOMIC CHARGES
-----------------------
   0 O :   -0.254217
   1 O :   -0.253694
   2 N :    0.236059
   3 N :   -0.067250
   4 C :    0.168513
   5 C :    0.072995
   6 C :   -0.019809
   7 C :   -0.023305
   8 C :   -0.018928
   9 C :   -0.058588
  10 H :    0.006296
  11 H :    0.006920
  12 H :   -0.029746
  13 H :   -0.016030
  14 H :    0.123095
  15 H :    0.131862
  16 O :   -0.293122
  17 H :    0.160903
  18 H :    0.128047
Sum of atomic charges:    0.0000000

--------------------------------
MULLIKEN REDUCED ORBITAL CHARGES
--------------------------------
  0 O s       :     3.857687  s :     3.857687
      pz      :     1.432896  p :     4.374582
      px      :     1.680239
      py      :     1.261446
      dz2     :     0.002679  d :     0.021948
      dxz     :     0.001598
      dyz     :     0.005011
      dx2y2   :     0.005660
      dxy     :     0.006999

  1 O s       :     3.857689  s :     3.857689
      pz      :     1.432605  p :     4.374049
      px      :     1.680018
      py      :     1.261427
      dz2     :     0.002680  d :     0.021955
      dxz     :     0.001599
      dyz     :     0.005013
      dx2y2   :     0.005662
      dxy     :     0.007002

  2 N s       :     3.292212  s :     3.292212
      pz      :     1.182720  p :     3.356438
      px      :     1.136805
      py      :     1.036913
      dz2     :     0.004718  d :     0.115291
      dxz     :     0.007635
      dyz     :     0.026983
      dx2y2   :     0.042681
      dxy     :     0.033274

  3 N s       :     3.292843  s :     3.292843
      pz      :     1.713258  p :     3.758980
      px      :     1.044468
      py      :     1.001254
      dz2     :     0.001742  d :     0.015427
      dxz     :     0.002658
      dyz     :     0.000122
      dx2y2   :     0.004433
      dxy     :     0.006472

  4 C s       :     2.996910  s :     2.996910
      pz      :     1.114498  p :     2.786699
      px      :     0.811897
      py      :     0.860304
      dz2     :     0.004122  d :     0.047877
      dxz     :     0.004790
      dyz     :     0.006806
      dx2y2   :     0.020285
      dxy     :     0.011875

  5 C s       :     2.982325  s :     2.982325
      pz      :     0.933933  p :     2.881978
      px      :     0.890736
      py      :     1.057309
      dz2     :     0.004330  d :     0.062702
      dxz     :     0.016816
      dyz     :     0.006597
      dx2y2   :     0.019655
      dxy     :     0.015304

  6 C s       :     3.278508  s :     3.278508
      pz      :     0.927423  p :     2.705931
      px      :     0.876407
      py      :     0.902102
      dz2     :     0.002637  d :     0.035370
      dxz     :     0.006930
      dyz     :     0.003918
      dx2y2   :     0.009527
      dxy     :     0.012358

  7 C s       :     3.285180  s :     3.285180
      pz      :     0.930599  p :     2.702726
      px      :     0.874665
      py      :     0.897462
      dz2     :     0.002624  d :     0.035399
      dxz     :     0.006888
      dyz     :     0.003915
      dx2y2   :     0.009507
      dxy     :     0.012465

  8 C s       :     3.228790  s :     3.228790
      pz      :     1.064292  p :     2.757844
      px      :     0.868915
      py      :     0.824637
      dz2     :     0.002638  d :     0.032293
      dxz     :     0.004927
      dyz     :     0.002817
      dx2y2   :     0.009350
      dxy     :     0.012561

  9 C s       :     3.258423  s :     3.258423
      pz      :     1.064214  p :     2.767878
      px      :     0.864137
      py      :     0.839527
      dz2     :     0.002610  d :     0.032287
      dxz     :     0.004959
      dyz     :     0.002876
      dx2y2   :     0.009372
      dxy     :     0.012470

 10 H s       :     0.970029  s :     0.970029
      pz      :     0.004128  p :     0.023675
      px      :     0.007595
      py      :     0.011952

 11 H s       :     0.969478  s :     0.969478
      pz      :     0.004077  p :     0.023602
      px      :     0.007554
      py      :     0.011971

 12 H s       :     1.006629  s :     1.006629
      pz      :     0.005214  p :     0.023117
      px      :     0.005856
      py      :     0.012048

 13 H s       :     0.992829  s :     0.992829
      pz      :     0.004999  p :     0.023201
      px      :     0.006045
      py      :     0.012157

 14 H s       :     0.831755  s :     0.831755
      pz      :     0.012980  p :     0.045151
      px      :     0.011922
      py      :     0.020248

 15 H s       :     0.822359  s :     0.822359
      pz      :     0.013113  p :     0.045779
      px      :     0.011877
      py      :     0.020788

 16 O s       :     3.672613  s :     3.672613
      pz      :     1.770007  p :     4.609842
      px      :     1.332683
      py      :     1.507152
      dz2     :     0.001328  d :     0.010668
      dxz     :     0.000523
      dyz     :     0.002596
      dx2y2   :     0.005473
      dxy     :     0.000747

 17 H s       :     0.768841  s :     0.768841
      pz      :     0.019012  p :     0.070256
      px      :     0.034436
      py      :     0.016808

 18 H s       :     0.798337  s :     0.798337
      pz      :     0.026261  p :     0.073616
      px      :     0.016848
      py      :     0.030506



                     *******************************
                     * LOEWDIN POPULATION ANALYSIS *
                     *******************************

----------------------
LOEWDIN ATOMIC CHARGES
----------------------
   0 O :   -0.219567
   1 O :   -0.219166
   2 N :    0.277142
   3 N :    0.011417
   4 C :   -0.057743
   5 C :    0.032992
   6 C :    0.010139
   7 C :    0.006496
   8 C :   -0.060316
   9 C :   -0.065821
  10 H :    0.042129
  11 H :    0.042342
  12 H :    0.027736
  13 H :    0.028940
  14 H :    0.082008
  15 H :    0.080575
  16 O :   -0.138038
  17 H :    0.075308
  18 H :    0.043428

-------------------------------
LOEWDIN REDUCED ORBITAL CHARGES
-------------------------------
  0 O s       :     3.621292  s :     3.621292
      pz      :     1.441961  p :     4.556136
      px      :     1.716866
      py      :     1.397309
      dz2     :     0.006449  d :     0.042139
      dxz     :     0.002079
      dyz     :     0.007079
      dx2y2   :     0.010620
      dxy     :     0.015912

  1 O s       :     3.621307  s :     3.621307
      pz      :     1.441689  p :     4.555710
      px      :     1.716739
      py      :     1.397282
      dz2     :     0.006451  d :     0.042149
      dxz     :     0.002080
      dyz     :     0.007081
      dx2y2   :     0.010622
      dxy     :     0.015916

  2 N s       :     3.049516  s :     3.049516
      pz      :     1.129934  p :     3.431522
      px      :     1.178129
      py      :     1.123459
      dz2     :     0.011854  d :     0.241820
      dxz     :     0.012759
      dyz     :     0.047382
      dx2y2   :     0.095239
      dxy     :     0.074586

  3 N s       :     3.017248  s :     3.017248
      pz      :     1.637124  p :     3.929287
      px      :     1.141822
      py      :     1.150341
      dz2     :     0.002899  d :     0.042048
      dxz     :     0.005160
      dyz     :     0.000156
      dx2y2   :     0.013900
      dxy     :     0.019933

  4 C s       :     2.857937  s :     2.857937
      pz      :     1.087555  p :     3.077450
      px      :     0.898291
      py      :     1.091604
      dz2     :     0.010009  d :     0.122356
      dxz     :     0.009568
      dyz     :     0.013950
      dx2y2   :     0.053591
      dxy     :     0.035238

  5 C s       :     2.838853  s :     2.838853
      pz      :     0.917846  p :     2.978660
      px      :     0.961046
      py      :     1.099768
      dz2     :     0.009684  d :     0.149495
      dxz     :     0.035090
      dyz     :     0.013338
      dx2y2   :     0.051261
      dxy     :     0.040122

  6 C s       :     2.862454  s :     2.862454
      pz      :     0.921626  p :     3.035724
      px      :     1.062756
      py      :     1.051342
      dz2     :     0.006345  d :     0.091683
      dxz     :     0.014608
      dyz     :     0.007700
      dx2y2   :     0.028399
      dxy     :     0.034631

  7 C s       :     2.862834  s :     2.862834
      pz      :     0.923882  p :     3.038694
      px      :     1.063718
      py      :     1.051095
      dz2     :     0.006319  d :     0.091975
      dxz     :     0.014612
      dyz     :     0.007703
      dx2y2   :     0.028332
      dxy     :     0.035010

  8 C s       :     2.857390  s :     2.857390
      pz      :     1.044834  p :     3.116515
      px      :     1.051466
      py      :     1.020215
      dz2     :     0.006343  d :     0.086411
      dxz     :     0.010090
      dyz     :     0.005242
      dx2y2   :     0.028467
      dxy     :     0.036269

  9 C s       :     2.860596  s :     2.860596
      pz      :     1.039565  p :     3.118893
      px      :     1.053217
      py      :     1.026110
      dz2     :     0.006389  d :     0.086333
      dxz     :     0.010099
      dyz     :     0.005322
      dx2y2   :     0.028581
      dxy     :     0.035941

 10 H s       :     0.886453  s :     0.886453
      pz      :     0.012669  p :     0.071418
      px      :     0.022959
      py      :     0.035791

 11 H s       :     0.886144  s :     0.886144
      pz      :     0.012730  p :     0.071514
      px      :     0.022941
      py      :     0.035843

 12 H s       :     0.904108  s :     0.904108
      pz      :     0.015994  p :     0.068155
      px      :     0.017222
      py      :     0.034939

 13 H s       :     0.901079  s :     0.901079
      pz      :     0.015850  p :     0.069981
      px      :     0.018166
      py      :     0.035965

 14 H s       :     0.794349  s :     0.794349
      pz      :     0.041467  p :     0.123643
      px      :     0.028957
      py      :     0.053219

 15 H s       :     0.792767  s :     0.792767
      pz      :     0.042668  p :     0.126658
      px      :     0.029129
      py      :     0.054860

 16 O s       :     3.426685  s :     3.426685
      pz      :     1.733414  p :     4.691887
      px      :     1.403870
      py      :     1.554604
      dz2     :     0.002206  d :     0.019466
      dxz     :     0.000596
      dyz     :     0.005080
      dx2y2   :     0.011070
      dxy     :     0.000514

 17 H s       :     0.747049  s :     0.747049
      pz      :     0.050133  p :     0.177644
      px      :     0.089168
      py      :     0.038343

 18 H s       :     0.764205  s :     0.764205
      pz      :     0.067725  p :     0.192368
      px      :     0.034520
      py      :     0.090123



                      *****************************
                      * MAYER POPULATION ANALYSIS *
                      *****************************

  NA   - Mulliken gross atomic population
  ZA   - Total nuclear charge
  QA   - Mulliken gross atomic charge
  VA   - Mayer's total valence
  BVA  - Mayer's bonded valence
  FA   - Mayer's free valence

  ATOM       NA         ZA         QA         VA         BVA        FA
  0 O      8.2542     8.0000    -0.2542     1.9510     1.9510    -0.0000
  1 O      8.2537     8.0000    -0.2537     1.9515     1.9515    -0.0000
  2 N      6.7639     7.0000     0.2361     3.9840     3.9840     0.0000
  3 N      7.0672     7.0000    -0.0672     3.2596     3.2596     0.0000
  4 C      5.8315     6.0000     0.1685     3.7475     3.7475     0.0000
  5 C      5.9270     6.0000     0.0730     4.0053     4.0053    -0.0000
  6 C      6.0198     6.0000    -0.0198     3.8559     3.8559     0.0000
  7 C      6.0233     6.0000    -0.0233     3.8399     3.8399     0.0000
  8 C      6.0189     6.0000    -0.0189     3.7501     3.7501     0.0000
  9 C      6.0586     6.0000    -0.0586     3.7807     3.7807    -0.0000
 10 H      0.9937     1.0000     0.0063     1.0189     1.0189     0.0000
 11 H      0.9931     1.0000     0.0069     1.0189     1.0189     0.0000
 12 H      1.0297     1.0000    -0.0297     0.9890     0.9890    -0.0000
 13 H      1.0160     1.0000    -0.0160     1.0171     1.0171     0.0000
 14 H      0.8769     1.0000     0.1231     0.9995     0.9995     0.0000
 15 H      0.8681     1.0000     0.1319     1.0085     1.0085     0.0000
 16 O      8.2931     8.0000    -0.2931     2.0842     2.0842     0.0000
 17 H      0.8391     1.0000     0.1609     1.0209     1.0209    -0.0000
 18 H      0.8720     1.0000     0.1280     1.0765     1.0765    -0.0000

  Mayer bond orders larger than 0.100000
B(  0-O ,  1-O ) :   0.2687 B(  0-O ,  2-N ) :   1.5339 B(  1-O ,  2-N ) :   1.5344 
B(  2-N ,  4-C ) :   0.8862 B(  3-N ,  5-C ) :   1.2443 B(  3-N , 14-H ) :   0.9435 
B(  3-N , 15-H ) :   0.9380 B(  4-C ,  6-C ) :   1.3485 B(  4-C ,  7-C ) :   1.3430 
B(  5-C ,  8-C ) :   1.2928 B(  5-C ,  9-C ) :   1.2833 B(  6-C ,  8-C ) :   1.3859 
B(  6-C , 10-H ) :   0.9808 B(  7-C ,  9-C ) :   1.3753 B(  7-C , 11-H ) :   0.9844 
B(  8-C , 12-H ) :   0.9883 B(  9-C , 13-H ) :   0.9847 B( 16-O , 17-H ) :   0.9958 
B( 16-O , 18-H ) :   0.9874 

-------
TIMINGS
-------

Total SCF time: 0 days 0 hours 0 min 6 sec 

Total time                  ....       6.234 sec
Sum of individual times     ....       6.062 sec  ( 97.2%)

SCF preparation             ....       0.836 sec  ( 13.4%)
Fock matrix formation       ....       4.390 sec  ( 70.4%)
  Startup                   ....       0.116 sec  (  2.6% of F)
  Split-RI-J                ....       0.417 sec  (  9.5% of F)
  Chain of spheres X        ....       2.304 sec  ( 52.5% of F)
  XC integration            ....       1.313 sec  ( 29.9% of F)
    XC Preparation          ....       0.000 sec  (  0.0% of XC)
    Basis function eval.    ....       0.189 sec  ( 14.4% of XC)
    Density eval.           ....       0.086 sec  (  6.5% of XC)
    XC-Functional eval.     ....       0.044 sec  (  3.4% of XC)
    XC-Potential eval.      ....       0.123 sec  (  9.4% of XC)
Diagonalization             ....       0.000 sec  (  0.0%)
Density matrix formation    ....       0.285 sec  (  4.6%)
Total Energy calculation    ....       0.100 sec  (  1.6%)
Population analysis         ....       0.024 sec  (  0.4%)
Orbital Transformation      ....       0.033 sec  (  0.5%)
Orbital Orthonormalization  ....       0.000 sec  (  0.0%)
DIIS solution               ....       0.216 sec  (  3.5%)
SOSCF solution              ....       0.176 sec  (  2.8%)
Finished LeanSCF after   6.3 sec

Maximum memory used throughout the entire LEANSCF-calculation: 20.3 MB


-------------------------------------------------------------------------------
                          DFT DISPERSION CORRECTION                            
                                                                               
                              DFTD3 V3.1  Rev 1                                
                          USING Becke-Johnson damping                          
-------------------------------------------------------------------------------
The B3LYP functional is recognized
Active option DFTDOPT                   ...         4   

molecular C6(AA) [au] = 3865.812564 


            DFT-D V3
 parameters
 s6 scaling factor         :     1.0000 
 a1 scaling factor         :     0.3981 
 s8 scaling factor         :     1.9889 
 a2 scaling factor         :     4.4211 
 ad hoc parameters k1-k3   :    16.0000     1.3333    -4.0000 

 Edisp/kcal,au: -21.072633465854  -0.033581375404 
 E6   /kcal   :  -9.982848577 
 E8   /kcal   : -11.089784889 
 % E8         :  52.626478353 

-------------------------   ----------------
Dispersion correction           -0.033581375
-------------------------   ----------------


-------------------------   --------------------
FINAL SINGLE POINT ENERGY      -567.847463052682
-------------------------   --------------------

--------------------------------------------------------------------------
By default, for Open MPI 4.0 and later, infiniband ports on a device
are not used by default.  The intent is to use UCX for these devices.
You can override this policy by setting the btl_openib_allow_ib MCA parameter
to true.

  Local host:              psid01
  Local adapter:           mlx5_0
  Local port:              1

--------------------------------------------------------------------------
--------------------------------------------------------------------------
WARNING: There was an error initializing an OpenFabrics device.

  Local host:   psid01
  Local device: mlx5_0
--------------------------------------------------------------------------


           ************************************************************
           *        Program running with 28 parallel MPI-processes    *
           *              working on a common directory               *
           ************************************************************
------------------------------------------------------------------------------
                         ORCA SCF GRADIENT CALCULATION
------------------------------------------------------------------------------

Nuc. rep. gradient        (SHARK) ... done (  0.0 sec)
HCore & Overlap gradient  (SHARK) ... done (  0.0 sec)
Split-RIJ-J gradient      (SHARK) ... done (  0.1 sec)
COSX-gradient                     ... done (  1.1 sec)
XC gradient                       ... done (  0.3 sec)
Dispersion correction             ... done (  0.0 sec)

-------------------
DISPERSION GRADIENT
-------------------

   1   O   :    0.000479705    0.000176496    0.000001168
   2   O   :    0.000482866   -0.000174434    0.000002514
   3   N   :    0.000600108    0.000003116    0.000004403
   4   N   :   -0.000641980    0.000121194    0.000168017
   5   C   :    0.000490793    0.000026648    0.000038597
   6   C   :   -0.000409801    0.000154652    0.000218432
   7   C   :    0.000129445    0.000600000    0.000033210
   8   C   :    0.000257449   -0.000537452    0.000137100
   9   C   :   -0.000132562    0.000655507    0.000107634
  10   C   :   -0.000057528   -0.000490754    0.000221027
  11   H   :    0.000093163    0.000347715    0.000002375
  12   H   :    0.000122662   -0.000348788    0.000023380
  13   H   :   -0.000102701    0.000361675    0.000015555
  14   H   :   -0.000061967   -0.000363733    0.000102532
  15   H   :   -0.000309728    0.000144577    0.000063282
  16   H   :   -0.000324060   -0.000046626    0.000083531
  17   O   :   -0.000270649   -0.000307304   -0.000536089
  18   H   :   -0.000104151   -0.000210836   -0.000418645
  19   H   :   -0.000241065   -0.000111652   -0.000268023

Difference to translation invariance:
           :    0.0000000000   -0.0000000000    0.0000000000

Difference to rotation invariance:
           :    0.0000000000   -0.0000000000   -0.0000000000

Norm of the Dispersion gradient    ...    0.0022236252
RMS gradient                       ...    0.0002945264
MAX gradient                       ...    0.0006555071

------------------
CARTESIAN GRADIENT
------------------

   1   O   :    0.000892400    0.000543078   -0.000017143
   2   O   :    0.000979841   -0.000615508    0.000045488
   3   N   :   -0.002815914   -0.000065528    0.000002713
   4   N   :    0.005559916   -0.000610802    0.003895636
   5   C   :    0.001849514   -0.000333333    0.000295334
   6   C   :   -0.010330613   -0.002098038   -0.004447453
   7   C   :   -0.001642121    0.000499550    0.000009091
   8   C   :   -0.001000496   -0.001299663    0.000328906
   9   C   :    0.002473277    0.001645463    0.000464049
  10   C   :    0.001747745    0.001943184   -0.002197916
  11   H   :    0.000014408   -0.000021316   -0.000048153
  12   H   :    0.000095850    0.000094951   -0.000271135
  13   H   :   -0.000021961   -0.000054436   -0.000072295
  14   H   :   -0.000549733   -0.001432913    0.000599553
  15   H   :    0.000457462   -0.000684735   -0.001005615
  16   H   :    0.000688282    0.001531894   -0.003350249
  17   O   :    0.001227063    0.003012039    0.001223025
  18   H   :    0.000897822   -0.000267319    0.000354271
  19   H   :   -0.000522741   -0.001786567    0.004191892

Difference to translation invariance:
           :    0.0000000000   -0.0000000001   -0.0000000000

Difference to rotation invariance:
           :    0.0000184992    0.0000658648   -0.0000491883

Norm of the Cartesian gradient     ...    0.0164457392
RMS gradient                       ...    0.0021782914
MAX gradient                       ...    0.0103306135

-------
TIMINGS
-------

Total SCF gradient time     ....        1.598 sec

Densities                   ....       0.001 sec  (  0.0%)
One electron gradient       ....       0.016 sec  (  1.0%)
RI-J Coulomb gradient       ....       0.139 sec  (  8.7%)
COSX gradient               ....       1.135 sec  ( 71.0%)
XC gradient                 ....       0.257 sec  ( 16.1%)

Maximum memory used throughout the entire SCFGRAD-calculation: 30.6 MB
[psid01:102030] 27 more processes have sent help message help-mpi-btl-openib.txt / ib port not selected
[psid01:102030] Set MCA parameter "orte_base_help_aggregate" to 0 to see all help / error messages
[psid01:102030] 27 more processes have sent help message help-mpi-btl-openib.txt / error in device init
------------------------------------------------------------------------------
                         ORCA GEOMETRY RELAXATION STEP
------------------------------------------------------------------------------

Reading the OPT-File                    .... done
Getting information on internals        .... done
Copying old internal coords+grads       .... done
Making the new internal coordinates     .... (2022 redundants) done
Validating the new internal coordinates .... (2022 redundants) done
Calculating the B-matrix                .... done
Calculating the G,G- and P matrices     .... done
Transforming gradient to internals      .... done
Projecting the internal gradient        .... done
Number of atoms                         ....  19
Number of internal coordinates          .... 114
Current Energy                          ....  -567.847463053 Eh
Current gradient norm                   ....     0.016445739 Eh/bohr
Maximum allowed component of the step   ....  0.300
[...]
RI-J Coulomb gradient       ....       0.138 sec  (  9.0%)
COSX gradient               ....       1.083 sec  ( 70.2%)
XC gradient                 ....       0.254 sec  ( 16.5%)

Maximum memory used throughout the entire SCFGRAD-calculation: 30.4 MB
[psid01:127504] 27 more processes have sent help message help-mpi-btl-openib.txt / ib port not selected
[psid01:127504] Set MCA parameter "orte_base_help_aggregate" to 0 to see all help / error messages
[psid01:127504] 27 more processes have sent help message help-mpi-btl-openib.txt / error in device init
------------------------------------------------------------------------------
                         ORCA GEOMETRY RELAXATION STEP
------------------------------------------------------------------------------

Reading the OPT-File                    .... done
Getting information on internals        .... done
Copying old internal coords+grads       .... done
Making the new internal coordinates     .... (2022 redundants) done
Validating the new internal coordinates .... (2022 redundants) done
Calculating the B-matrix                .... done
Calculating the G,G- and P matrices     .... done
Transforming gradient to internals      .... done
Projecting the internal gradient        .... done
Number of atoms                         ....  19
Number of internal coordinates          .... 114
Current Energy                          ....  -567.855933863 Eh
Current gradient norm                   ....     0.006228571 Eh/bohr
Maximum allowed component of the step   ....  0.300
Current trust radius                    ....  0.700
Updating the Hessian (BFGS)             .... done
Forming the augmented Hessian           .... done
Diagonalizing the augmented Hessian     .... done
Last element of RFO vector              ....  0.953296960
Lowest eigenvalues of augmented Hessian:
 -0.000144341  0.000155199  0.000527201  0.000689097  0.002280507
Length of the computed step             ....  0.316831612
The final length of the internal step   ....  0.316831612
Converting the step to Cartesian space:
 Initial RMS(Int)=    0.0296739992
Transforming coordinates:
 Iter   0:  RMS(Cart)=    0.0247664034 RMS(Int)=    0.8326372829
 Iter   5:  RMS(Cart)=    0.0000000358 RMS(Int)=    0.0000000242
done
Storing new coordinates                 .... done
The predicted energy change is          ....    -0.000079415
Previously predicted energy change      ....    -0.000077558
Actually observed energy change         ....    -0.000106851
Ratio of predicted to observed change   ....     1.377682469
New trust radius                        ....     0.700000000

                                .--------------------.
          ----------------------|Geometry convergence|-------------------------
          Item                value                   Tolerance       Converged
          ---------------------------------------------------------------------
          Energy change      -0.0001068507            0.0000050000      NO
          RMS gradient        0.0003172424            0.0001000000      NO
          MAX gradient        0.0014747493            0.0003000000      NO
          RMS step            0.0296739992            0.0020000000      NO
          MAX step            0.1269250799            0.0040000000      NO
          ........................................................
          Max(Bonds)      0.0302      Max(Angles)    3.47
          Max(Dihed)        7.27      Max(Improp)    0.00
          ---------------------------------------------------------------------

The optimization has not yet converged - more geometry cycles are needed


    ---------------------------------------------------------------------------
                         Redundant Internal Coordinates
                            (Angstroem and degrees)

        Definition                    Value    dE/dq     Step     New-Value
    ----------------------------------------------------------------------------
     1. B(N   2,O   1)                1.2255 -0.000370 -0.0001    1.2254   
     2. B(N   2,O   0)                1.2256  0.000096 -0.0001    1.2254   
     3. B(C   4,N   2)                1.4562 -0.000017  0.0008    1.4570   
     4. B(C   5,N   3)                1.3607  0.000965 -0.0044    1.3563   
     5. B(C   6,C   4)                1.3975 -0.001475  0.0022    1.3997   
     6. B(C   7,C   4)                1.3998 -0.000419 -0.0001    1.3997   
     7. B(C   8,C   5)                1.4171 -0.000410  0.0009    1.4181   
     8. B(C   8,C   6)                1.3874  0.001207 -0.0020    1.3854   
     9. B(C   9,C   7)                1.3844 -0.000040  0.0001    1.3845   
    10. B(C   9,C   5)                1.4204  0.000322 -0.0006    1.4198   
    11. B(H  10,C   6)                1.0900  0.000115 -0.0002    1.0898   
    12. B(H  11,C   7)                1.0896 -0.000067 -0.0000    1.0896   
    13. B(H  12,C   8)                1.0929 -0.000081  0.0005    1.0934   
    14. B(H  13,C   9)                1.0910  0.000020  0.0003    1.0913   
    15. B(H  14,N   3)                1.0099 -0.000071 -0.0003    1.0095   
    16. B(H  15,N   3)                1.0175 -0.000824 -0.0031    1.0144   
    17. B(H  17,O  16)                0.9670 -0.000209  0.0003    0.9673   
    18. B(H  18,C   5)                4.0556  0.000019  0.0014    4.0570   
    19. B(H  18,N   3)                3.4958 -0.000457 -0.0194    3.4764   
    20. B(H  18,H  15)                2.5517  0.000233 -0.0302    2.5215   
    21. B(H  18,O  16)                0.9667 -0.000317  0.0001    0.9668   
    22. A(O   0,N   2,C   4)          117.88 -0.000117   -0.01    117.87   
    23. A(O   1,N   2,C   4)          117.90  0.000148   -0.03    117.87   
    24. A(O   0,N   2,O   1)          124.22 -0.000033    0.04    124.27   
    25. A(C   5,N   3,H  14)          119.59 -0.000162    0.49    120.08   
    26. A(H  15,N   3,H  18)           18.54 -0.000066   -0.44     18.10   
    27. A(C   5,N   3,H  15)          119.72 -0.000091    0.82    120.54   
    28. A(C   5,N   3,H  18)          104.46 -0.000037    1.13    105.59   
    29. A(H  14,N   3,H  15)          119.33  0.000222    0.50    119.83   
    30. A(H  14,N   3,H  18)          129.86  0.000137    0.52    130.38   
    31. A(N   2,C   4,C   6)          119.82  0.000395   -0.11    119.71   
    32. A(N   2,C   4,C   7)          119.62 -0.000077    0.01    119.63   
    33. A(C   6,C   4,C   7)          120.56 -0.000319    0.09    120.66   
    34. A(C   9,C   5,H  18)           65.62  0.000033    0.73     66.35   
    35. A(C   8,C   5,H  18)          166.05 -0.000089    0.98    167.03   
    36. A(N   3,C   5,H  18)           56.58 -0.000094   -0.86     55.72   
    37. A(C   8,C   5,C   9)          118.21 -0.000035   -0.12    118.08   
    38. A(N   3,C   5,C   9)          120.34 -0.000027   -0.00    120.33   
    39. A(N   3,C   5,C   8)          121.46  0.000061    0.13    121.58   
    40. A(C   8,C   6,H  10)          121.30 -0.000281    0.16    121.46   
    41. A(C   4,C   6,H  10)          118.84 -0.000228   -0.04    118.80   
    42. A(C   4,C   6,C   8)          119.86  0.000509   -0.12    119.74   
    43. A(C   4,C   7,C   9)          119.81  0.000549   -0.15    119.65   
    44. A(C   9,C   7,H  11)          121.12 -0.000849    0.15    121.27   
    45. A(C   4,C   7,H  11)          119.07  0.000300    0.00    119.08   
    46. A(C   6,C   8,H  12)          119.55 -0.000427    0.19    119.74   
    47. A(C   5,C   8,C   6)          120.75 -0.000409    0.14    120.89   
    48. A(C   5,C   8,H  12)          119.70  0.000835   -0.33    119.37   
    49. A(C   5,C   9,C   7)          120.81 -0.000298    0.16    120.97   
    50. A(C   7,C   9,H  13)          120.54 -0.000519    0.07    120.61   
    51. A(C   5,C   9,H  13)          118.65  0.000817   -0.23    118.42   
    52. A(N   3,H  15,H  18)          154.17  0.000151    0.60    154.77   
    53. A(H  17,O  16,H  18)          104.81  0.000136   -0.07    104.74   
    54. A(N   3,H  18,O  16)           46.55 -0.000156    1.95     48.50   
    55. A(H  15,H  18,O  16)           40.30 -0.000075    1.03     41.32   
    56. A(N   3,H  18,C   5)           18.96  0.000131   -0.27     18.69   
    57. A(C   5,H  18,H  15)           25.38  0.000051   -0.52     24.86   
    58. A(C   5,H  18,O  16)           57.42 -0.000094    3.47     60.88   
    59. A(N   3,H  18,H  15)            7.28 -0.000086   -0.16      7.13   
    60. D(C   7,C   4,N   2,O   0)   -179.16 -0.000191   -0.11   -179.26   
    61. D(C   6,C   4,N   2,O   0)      1.14 -0.000137   -0.28      0.85   
    62. D(C   7,C   4,N   2,O   1)      1.09  0.000330   -0.32      0.76   
    63. D(C   6,C   4,N   2,O   1)   -178.62  0.000384   -0.50   -179.12   
    64. D(C   8,C   5,N   3,H  14)      8.44 -0.000043   -2.37      6.07   
    65. D(C   9,C   5,N   3,H  18)    -16.41  0.000144    0.49    -15.92   
    66. D(C   9,C   5,N   3,H  15)     -4.98  0.000097    1.04     -3.94   
    67. D(C   9,C   5,N   3,H  14)   -171.60  0.000216   -2.78   -174.38   
    68. D(C   8,C   5,N   3,H  15)    175.05 -0.000163    1.45    176.50   
    69. D(C   8,C   5,N   3,H  18)    163.62 -0.000116    0.90    164.52   
    70. D(H  10,C   6,C   4,C   7)   -179.72  0.000062   -0.14   -179.86   
    71. D(C   8,C   6,C   4,C   7)      0.25  0.000041   -0.12      0.12   
    72. D(C   8,C   6,C   4,N   2)    179.95 -0.000012    0.06    180.01   
    73. D(H  10,C   6,C   4,N   2)     -0.02  0.000008    0.04      0.03   
    74. D(C   9,C   7,C   4,N   2)   -179.99 -0.000010   -0.03   -180.02   
    75. D(H  11,C   7,C   4,C   6)    179.44 -0.000085    0.24    179.68   
    76. D(H  11,C   7,C   4,N   2)     -0.26 -0.000033    0.06     -0.20   
    77. D(C   9,C   7,C   4,C   6)     -0.29 -0.000062    0.15     -0.14   
    78. D(H  12,C   8,C   5,C   9)    179.62 -0.000106    0.19    179.81   
    79. D(C   5,C   8,C   6,C   4)      0.28  0.000075   -0.12      0.16   
    80. D(C   5,C   8,C   6,H  10)   -179.76  0.000054   -0.11   -179.86   
    81. D(H  12,C   8,C   5,N   3)     -0.42  0.000149   -0.21     -0.63   
    82. D(H  12,C   8,C   6,C   4)    179.92  0.000019    0.02    179.94   
    83. D(C   6,C   8,C   5,H  18)   -103.22 -0.000035   -3.49   -106.71   
    84. D(H  12,C   8,C   6,H  10)     -0.12 -0.000002    0.03     -0.08   
    85. D(C   6,C   8,C   5,C   9)     -0.74 -0.000167    0.33     -0.41   
    86. D(C   6,C   8,C   5,N   3)    179.23  0.000088   -0.07    179.16   
    87. D(H  13,C   9,C   5,N   3)      1.23 -0.000035   -0.22      1.01   
    88. D(C   7,C   9,C   5,H  18)    165.73  0.000047    0.83    166.56   
    89. D(C   7,C   9,C   5,C   8)      0.70  0.000147   -0.30      0.40   
    90. D(C   7,C   9,C   5,N   3)   -179.27 -0.000104    0.10   -179.16   
    91. D(H  13,C   9,C   7,H  11)     -0.42 -0.000078    0.30     -0.12   
    92. D(H  13,C   9,C   7,C   4)    179.30 -0.000098    0.39    179.69   
    93. D(C   5,C   9,C   7,H  11)   -179.92 -0.000014   -0.02   -179.94   
    94. D(C   5,C   9,C   7,C   4)     -0.19 -0.000033    0.07     -0.13   
    95. D(H  13,C   9,C   5,C   8)   -178.81  0.000217   -0.62   -179.43   
    96. D(H  18,H  15,N   3,H  14)    129.54 -0.000150    0.85    130.38   
    97. D(H  18,H  15,N   3,C   5)    -37.11  0.000021   -3.11    -40.22   
    98. D(N   3,H  18,O  16,H  17)   -134.85 -0.000164    5.60   -129.25   
    99. D(H  15,H  18,O  16,H  17)   -140.29 -0.000130    7.27   -133.02   
   100. D(C   5,H  18,H  15,N   3)     24.22  0.000130    1.90     26.12   
   101. D(O  16,H  18,H  15,N   3)    147.12 -0.000107    2.62    149.74   
   102. D(H  15,H  18,C   5,C   9)    155.26  0.000260   -0.30    154.96   
   103. D(H  15,H  18,C   5,C   8)    -95.59  0.000165    2.93    -92.67   
   104. D(H  15,H  18,C   5,N   3)     -9.21  0.000124   -0.86    -10.07   
   105. D(O  16,H  18,C   5,C   9)    115.14  0.000154    1.97    117.10   
   106. D(O  16,H  18,C   5,C   8)   -135.71  0.000059    5.20   -130.52   
   107. D(O  16,H  18,C   5,N   3)    -49.33  0.000019    1.41    -47.93   
   108. D(C   5,H  18,N   3,H  14)    151.61 -0.000196    3.88    155.49   
   109. D(H  15,H  18,N   3,H  14)    -61.15 -0.000205    1.04    -60.11   
   110. D(H  15,H  18,N   3,C   5)    147.24 -0.000009   -2.84    144.40   
   111. D(O  16,H  18,N   3,H  15)    -28.92 -0.000124    4.76    -24.16   
   112. D(O  16,H  18,N   3,H  14)    -90.07 -0.000330    5.80    -84.27   
   113. D(C   5,H  18,O  16,H  17)   -115.01  0.000022    5.23   -109.77   
   114. D(O  16,H  18,N   3,C   5)    118.31 -0.000133    1.92    120.24   
    ----------------------------------------------------------------------------

Geometry step timings:
Preparation and reading OPT file:      0.002 s (17.411 %)
Internal coordinates            :      0.000 s ( 0.338 %)
B/P matrices and projection     :      0.001 s (12.001 %)
Hessian update/contruction      :      0.003 s (34.157 %)
Making the step                 :      0.001 s (11.416 %)
Converting the step to Cartesian:      0.000 s ( 1.171 %)
Storing new data                :      0.001 s ( 5.370 %)
Checking convergence            :      0.000 s ( 0.149 %)
Final printing                  :      0.002 s (17.957 %)
Total time                      :      0.010 s
--------------------------------------------------------------------------
By default, for Open MPI 4.0 and later, infiniband ports on a device
are not used by default.  The intent is to use UCX for these devices.
You can override this policy by setting the btl_openib_allow_ib MCA parameter
to true.

  Local host:              psid01
  Local adapter:           mlx5_0
  Local port:              1

--------------------------------------------------------------------------
--------------------------------------------------------------------------
WARNING: There was an error initializing an OpenFabrics device.

  Local host:   psid01
  Local device: mlx5_0
--------------------------------------------------------------------------
[psid01:127594] 27 more processes have sent help message help-mpi-btl-openib.txt / ib port not selected
[psid01:127594] Set MCA parameter "orte_base_help_aggregate" to 0 to see all help / error messages
[psid01:127594] 27 more processes have sent help message help-mpi-btl-openib.txt / error in device init

Time for energy+gradient        :     11.144 s
Time for complete geometry iter :     12.517 s




    ----------------------------------------------------------------------------
                                  WARNING !!!
       The optimization did not converge but reached the maximum number of
       optimization cycles.
       Please check your results very carefully.
    ----------------------------------------------------------------------------



--------------------------------
SUGGESTED CITATIONS FOR THIS RUN
--------------------------------

Below you find a list of papers that are relevant to this ORCA run
We neither can nor want to force you to cite these papers, but we appreciate if you do
You receive ORCA, which is the product of decades of hard work by many enthusiastic individuals, for free
The only thing we kindly ask in return is that you cite our papers,
We deeply appreciate it, if you show your appreciation for ORCA by not just citing the generic ORCA reference.

Please note that relegating all ORCA citations to the supporting information does *not* help us.
SI sections are not indexed - citations you put there will not count into any citation statistics
But we need these citations in order to attract the funding resources that allow us to do what we are doing

Therefore, if you are a happy ORCA user, please consider citing a few of the papers listed below in the main body of your paper

In addition to the list printed below, the program has created the file 4nitroaniline_water_2_OPT_option2.bibtex that contains the list in bibtex format
You can import this file easily into all common literature databanks and citation aid programs


List of essential papers. We consider these as the minimum necessary citations

  1. Neese,F.
     Software update: the ORCA program system, version 5.0
     WIRES Comput. Molec. Sci., 2022 12(1)e1606
     doi.org/10.1002/wcms.1606

List of papers to cite with high priority. The work reported in these papers was absolutely
necessary for this run to complete.
Our perspective: the developers of density functionals and basis sets usually get cited in chemistry papers
Good! But without the algorithms to do something with them, the functionals or basis sets would not do anything.
Hence, in our opinion, the algorithm design and method developments papers are equally worthy of getting cited

  1. Neese,F.
     An improvement of the resolution of the identity approximation for the formation of the Coulomb matrix
     J. Comp. Chem., 2003 24(14)1740-1747
     doi.org/10.1002/jcc.10318
  2. Neese,F.; Wennmohs,F.; Hansen,A.; Becker,U.
     Efficient, approximate and parallel Hartree-Fock and hybrid DFT calculations. A 'chain-of-spheres' algorithm for the Hartree-Fock exchange
     Chem. Phys., 2009 356(1-3)98-109
     doi.org/10.1016/j.chemphys.2008.10.036
  3. Helmich-Paris,B.; de Souza,B.; Neese,F.; Izsák,R.
     An improved chain of spheres for exchange algorithm
     J. Chem. Phys., 2021 155 104109
     doi.org/doi: 10.1063/5.0058766.
  4. Neese,F.
     The SHARK Integral Generation and Digestion System
     J. Comp. Chem., 2022  1-16
     doi.org/10.1002/jcc.26942
  5. Grimme,S.; Antony,J.; Ehrlich,S.; Krieg,H.
     A consistent and accurate ab initio parametrization of density functional dispersion correction (DFT-D) for the 94 elements H-Pu
     J. Chem. Phys., 2010 132 154104
     doi.org/10.1063/1.3382344
  6. Grimme,S.; Ehrlich,S.; Goerigk,L.
     Effect of the damping function in dispersion corrected density functional theory
     J. Comput. Chem., 2011 32(7)1456-1465
     doi.org/10.1002/jcc.21759

List of suggested additional citations. These are papers that are important in the 'surrounding' of 
of this run, or papers that preceded the highly important papers. If you like your results we are grateful for a citation.

  1. Izsak,R.; Neese,F.
     An overlap fitted chain of spheres exchange method
     J. Chem. Phys., 2011 135 144105
     doi.org/10.1063/1.3646921
  2. Izsak,R.; Hansen,A.; Neese,F.
     The resolution of identity and chain of spheres approximations for the LPNO-CCSD singles Fock term
     Molec. Phys., 2012 110 2413-2417
     doi.org/10.1080/00268976.2012.687466
  3. Neese,F.
     The ORCA program system
     WIRES Comput. Molec. Sci., 2012 2(1)73-78
     doi.org/10.1002/wcms.81
  4. Izsak,R.; Neese,F.; Klopper,W.
     Robust fitting techniques in the chain of spheres approximation to the Fock exchange: The role of the complementary space
     J. Chem. Phys., 2013 139 
     doi.org/10.1063/1.4819264
  5. Neese,F.
     Software update: the ORCA program system, version 4.0
     WIRES Comput. Molec. Sci., 2018 8(1)1-6
     doi.org/10.1002/wcms.1327
  6. Neese,F.; Wennmohs,F.; Becker,U.; Riplinger,C.
     The ORCA quantum chemistry program package
     J. Chem. Phys., 2020 152 Art. No. L224108
     doi.org/10.1063/5.0004608

List of optional additional citations

  1. Neese,F.
     Approximate second-order SCF convergence for spin unrestricted wavefunctions
     Chem. Phys. Lett., 2000 325(1-3)93-98
     doi.org/10.1016/s0009-2614(00)00662-x

Timings for individual modules:

Sum of individual times          ...      687.801 sec (=  11.463 min)
Startup calculation              ...      101.991 sec (=   1.700 min)  14.8 %
SCF iterations                   ...      445.513 sec (=   7.425 min)  64.8 %
SCF Gradient evaluation          ...      139.648 sec (=   2.327 min)  20.3 %
Geometry relaxation              ...        0.648 sec (=   0.011 min)   0.1 %
                             ****ORCA TERMINATED NORMALLY****
TOTAL RUN TIME: 0 days 0 hours 12 minutes 44 seconds 766 msec
