
                                 *****************
                                 * O   R   C   A *
                                 *****************

                                            #,                                       
                                            ###                                      
                                            ####                                     
                                            #####                                    
                                            ######                                   
                                           ########,                                 
                                     ,,################,,,,,                         
                               ,,#################################,,                 
                          ,,##########################################,,             
                       ,#########################################, ''#####,          
                    ,#############################################,,   '####,        
                  ,##################################################,,,,####,       
                ,###########''''           ''''###############################       
              ,#####''   ,,,,##########,,,,          '''####'''          '####       
            ,##' ,,,,###########################,,,                        '##       
           ' ,,###''''                  '''############,,,                           
         ,,##''                                '''############,,,,        ,,,,,,###''
      ,#''                                            '''#######################'''  
     '                                                          ''''####''''         
             ,#######,   #######,   ,#######,      ##                                
            ,#'     '#,  ##    ##  ,#'     '#,    #''#        ,####,   ,####,        
            ##       ##  ##   ,#'  ##            #'  '#       #'       #'  '#        
            ##       ##  #######   ##           ,######,      #####,   #    #        
            '#,     ,#'  ##    ##  '#,     ,#' ,#      #,     #,   #   #,  ,#        
             '#######'   ##     ##  '#######'  #'      '#     '####' # '####'        



                #########################################################
                #                        -***-                          #
                #          Department of theory and spectroscopy        #
                #                                                       #
                #                      Frank Neese                      #
                #                                                       #
                #     Directorship, Architecture, Infrastructure        #
                #                    SHARK, DRIVERS                     #
                #        Core code/Algorithms in most modules           #
                #                                                       #
                #        Max Planck Institute fuer Kohlenforschung      #
                #                Kaiser Wilhelm Platz 1                 #
                #                 D-45470 Muelheim/Ruhr                 #
                #                      Germany                          #
                #                                                       #
                #                  All rights reserved                  #
                #                        -***-                          #
                #########################################################


                         Program Version 6.0.1  -  RELEASE   -


 With contributions from (in alphabetic order):
[Max-Planck-Institut fuer Kohlenforschung]                               
  Daniel Aravena         : Magnetic Suceptibility                        
  Michael Atanasov       : Ab Initio Ligand Field Theory (pilot matlab implementation)
  Alexander A. Auer      : GIAO ZORA, VPT2 properties, NMR spectrum      
  Ute Becker             : All parallelization in ORCA, NUMFREQ, NUMCALC 
  Giovanni Bistoni       : ED, misc. LED, open-shell LED, HFLD           
  Martin Brehm           : Molecular dynamics                            
  Dmytro Bykov           : pre 5.0 version of the SCF Hessian            
  Marcos Casanova-Páez   : Triplet and SCS-CIS(D). UHF-(DLPNO)-IP/EA/STEOM-CCSD. UHF-CVS-IP/STEOM-CCSD   
  Vijay G. Chilkuri      : MRCI spin determinant printing, contributions to CSF-ICE 
  Pauline Colinet        : FMM embedding                                 
  Dipayan Datta          : RHF DLPNO-CCSD density                        
  Achintya Kumar Dutta   : EOM-CC, STEOM-CC                              
  Nicolas Foglia         : Exact transition moments, OPA infrastructure, MCD improvements    
  Dmitry Ganyushin       : Spin-Orbit,Spin-Spin,Magnetic field MRCI      
  Miquel Garcia-Rates    : C-PCM and meta-GGA Hessian, CCSD/C-PCM, Gaussian charge scheme 
  Tiago L. C. Gouveia    : GS-ROHF, GS-ROCIS                             
  Yang Guo               : DLPNO-NEVPT2, F12-NEVPT2, CIM, IAO-localization        
  Andreas Hansen         : Spin unrestricted coupled pair/coupled cluster methods 
  Ingolf Harden          : AUTO-CI MPn and infrastructure                
  Benjamin Helmich-Paris : MC-RPA, TRAH-(SCF,CASSCF), AVAS, COSX integrals, SCF dyn. polar. 
  Lee Huntington         : MR-EOM, pCC                                   
  Robert Izsak           : Overlap fitted RIJCOSX, COSX-SCS-MP3, EOM     
  Riya Kayal             : Wick's Theorem for AUTO-CI, AUTO-CI UHF-CCSDT 
  Emily Kempfer          : AUTO-CI, RHF CISDT and CCSDT                  
  Christian Kollmar      : KDIIS, OOCD, Brueckner-CCSD(T), CCSD density, CASPT2, CASPT2-K, improved NEVPT2 
  Axel Koslowski         : Symmetry handling                             
  Simone Kossmann        : meta-GGA functionals, TD-DFT gradient, OOMP2, (MP2 Hessian; deprecated post 5.0) 
  Lucas Lang             : DCDCAS                                        
  Marvin Lechner         : AUTO-CI (C++ implementation), FIC-MRCC        
  Spencer Leger          : CASSCF response                               
  Dagmar Lenk            : GEPOL surface, SMD, ORCA-2-JSON               
  Dimitrios Liakos       : Extrapolation schemes; Compound Job, initial MDCI parallelization 
  Dimitrios Manganas     : Further ROCIS development; embedding schemes. LFT, Crystal Embedding 
  Dimitrios Pantazis     : SARC Basis sets                               
  Anastasios Papadopoulos: AUTO-CI, single reference methods and gradients 
  Taras Petrenko         : pre 6.0 DFT Hessian and TD-DFT gradient, (ASA, deprecated), ECA, 1-Electron XAS/XES, NRVS 
  Peter Pinski           : DLPNO-MP2, DLPNO-MP2 Gradient                 
  Christoph Reimann      : Effective Core Potentials                     
  Marius Retegan         : Local ZFS, SOC                                
  Christoph Riplinger    : Optimizer, TS searches, QM/MM, DLPNO-CCSD(T), (RO)-DLPNO pert. Triples 
  Michael Roemelt        : Original ROCIS implementation                 
  Masaaki Saitow         : Open-shell DLPNO-CCSD energy and density      
  Barbara Sandhoefer     : DKH picture change effects                    
  Kantharuban Sivalingam : CASSCF convergence/infrastructure, NEVPT2 and variants, FIC-MRCI 
  Bernardo de Souza      : ESD, SOC TD-DFT                               
  Georgi L. Stoychev     : AutoAux, RI-MP2 NMR, DLPNO-MP2 response, X2C  
  Van Anh Tran           : RI-MP2 g-tensors                              
  Willem Van den Heuvel  : Paramagnetic NMR                              
  Zikuan Wang            : NOTCH, Electric field optimization            
  Frank Wennmohs         : Technical directorship and infrastructure     
  Hang Xu                : AUTO-CI-Response properties                   
                                                                         
[FACCTs GmbH]                                                            
  Markus Bursch, Miquel Garcia-Rates, Christoph Riplinger, Bernardo de Souza, Georgi L. Stoychev 
                                                                 
  APM, Basis sets (HGBS, AHGBS, def-TZVP (Ac-Lr), def2-XVPD (La-Lu)), CI-OPT, improved COSX, DLPNO-Multilevel,           
  DOCKER, DRACO, updates on ESD, GOAT, IRC, LR-CPCM, MBIS, meta-GGA TD-DFT gradient, ML-optimized integration grids, 
  MM, NACMEs, nearIR, NEB, NEB-TS, NL-DFT gradient (VV10), 2- and 3-layer-ONIOM, interface openCOSMO-RS, QMMM,   
  Crystal-QMMM, SF, symmetry and pop. for TD-DFT, r2SCAN hybrids, SOLVATOR                                   
                                                                         
[Other institutions]                                                     
  V. Asgeirsson          : NEB                                           
  Christoph Bannwarth    : sTDA-DFT, sTD-DFT, PBEh-3c, B97-3c, D3        
  Sebastian Ehlert       : rSCAN, r2SCAN, r2SCAN-3c, D4, dhf basis sets  
  Marvin Friede          : D4 for Fr, Ra, Ac-Lr                          
  Lars Goerigk           : TD-DFT with DH, B97 family of functionals     
  Stefan Grimme          : VdW corrections, initial TS optimization, DFT functionals, gCP, sTDA/sTD-DF 
  Waldemar Hujo          : DFT-NL                                        
  H. Jonsson             : NEB                                           
  Holger Kruse           : gCP                                           
  Marcel Mueller         : wB97X-3c, vDZP basis set                      
  Hagen Neugebauer       : wr2SCAN                                       
  Tobias Risthaus        : range-separated hybrid DFT                    
  Lukas Wittmann         : regularized MP2, r2SCAN double-hybrids, wr2SCAN        
                                                                         
We gratefully acknowledge several colleagues who have allowed us to      
interface, adapt or use parts of their codes:                            
  Ed Valeev, F. Pavosevic, A. Kumar             : LibInt (2-el integral package), F12 methods 
  Garnet Chan, S. Sharma, J. Yang, R. Olivares  : DMRG                   
  Ulf Ekstrom                                   : XCFun DFT Library      
  Mihaly Kallay                                 : mrcc  (arbitrary order and MRCC methods)
  Frank Weinhold                                : gennbo (NPA and NBO analysis)           
  Simon Mueller                                 : openCOSMO-RS                            
  Christopher J. Cramer and Donald G. Truhlar   : smd solvation model                     
  S Lehtola, MJT Oliveira, MAL Marques          : LibXC Library                           
  Liviu Ungur et al                             : ANISO software                          


 Your calculation uses the libint2 library for the computation of 2-el integrals
 For citations please refer to: http://libint.valeyev.net

 Your ORCA version has been built with support for libXC version: 6.2.2
 For citations please refer to: https://libxc.gitlab.io

 This ORCA versions uses:
   CBLAS   interface :  Fast vector & matrix operations
   LAPACKE interface :  Fast linear algebra routines
   SCALAPACK package :  Parallel linear algebra routines
   Shared memory     :  Shared parallel matrices
   BLAS/LAPACK       :  OpenBLAS 0.3.27  USE64BITINT DYNAMIC_ARCH NO_AFFINITY SkylakeX SINGLE_THREADED
        Core in use  :  SkylakeX
   Copyright (c) 2011-2014, The OpenBLAS Project


NOTE: MaxCore=4000 MB was set to SCF,MP2,MDCI,CIPSI,MRCI and CIS
      => If you want to overwrite this, your respective input block should be placed after the MaxCore statement
Your calculation utilizes the atom-pairwise dispersion correction
with the Becke-Johnson damping scheme (D3BJ)


Warning: RI is on but no J-basis has been assigned. Assigning Def2/J (nothing to worry about!)
================================================================================

----- Orbital basis set information -----
Your calculation utilizes the basis: def2-SVP
   F. Weigend and R. Ahlrichs, Phys. Chem. Chem. Phys. 7, 3297 (2005).

----- AuxJ basis set information -----
Your calculation utilizes the auxiliary basis: def2/J
   F. Weigend, Phys. Chem. Chem. Phys. 8, 1057 (2006).

================================================================================
                                        WARNINGS
                       Please study these warnings very carefully!
================================================================================


WARNING: Geometry Optimization
  ===> : Switching off AutoStart
         For restart on a previous wavefunction, please use MOREAD

================================================================================
                                       INPUT FILE
================================================================================
NAME = 4nitroaniline_water_2_OPT.inp
|  1> ! B3LYP def2-SVP OPT TightSCF D3BJ
|  2> 
|  3> 
|  4> %maxcore 4000
|  5> 
|  6> %pal
|  7> nprocs 28
|  8> end
|  9> 
| 10> * xyz 0 1
| 11>   O           2.77197947055358      0.93195919481847      0.30590397299431
| 12>   O           2.60994964368795     -1.13439585293963     -0.32369087682596
| 13>   N           2.12528465800100     -0.05523003169394     -0.01418677291437
| 14>   N          -3.50049763395172      0.40658033316329     -0.11506569195536
| 15>   C           0.66485266499292      0.06366568346840     -0.02876267451783
| 16>   C          -2.11638190487905      0.28674828637602     -0.05100274746487
| 17>   C           0.07282578909238      1.27840950125833      0.32161579579670
| 18>   C          -0.11153570148182     -1.03951562499899     -0.39482108669325
| 19>   C          -1.31257148780720      1.38658461107914      0.30926215314232
| 20>   C          -1.49481367813430     -0.93008098013537     -0.40929454864828
| 21>   H           0.70657561273653      2.11870606750171      0.60276638713747
| 22>   H           0.38790657120091     -1.96926879671497     -0.66619242356838
| 23>   H          -1.78429889604867      2.33302625997809      0.58614089176984
| 24>   H          -2.11574448869050     -1.76720839946438     -0.73179771753918
| 25>   H          -3.90015252290899      1.20128723113281      0.36477357167189
| 26>   H          -4.02600923174279     -0.44825245705539      0.03505936748910
| 27>   O          -3.76261757732187     -1.10941962988160     -2.61011713754425
| 28>   H          -2.90456824228863     -1.02397488912309     -3.04707921417765
| 29>   H          -3.83374357440966     -0.28686662406889     -2.09818294885220               
| 30> *           
| 31> 
| 32> 
| 33>                          ****END OF INPUT****
================================================================================

                       *****************************
                       * Geometry Optimization Run *
                       *****************************

Geometry optimization settings:
Update method            Update   .... BFGS
Choice of coordinates    CoordSys .... (2022) Redundant Internals
Initial Hessian          InHess   .... Almloef's Model
Max. no of cycles        MaxIter  .... 57

Convergence Tolerances:
Energy Change            TolE     ....  5.0000e-06 Eh
Max. Gradient            TolMAXG  ....  3.0000e-04 Eh/bohr
RMS Gradient             TolRMSG  ....  1.0000e-04 Eh/bohr
Max. Displacement        TolMAXD  ....  4.0000e-03 bohr
RMS Displacement         TolRMSD  ....  2.0000e-03 bohr
Strict Convergence                .... False

------------------------------------------------------------------------------
                        ORCA OPTIMIZATION COORDINATE SETUP
------------------------------------------------------------------------------

The optimization will be done in redundant internal coordinates (2022)
Making redundant internal coordinates   ...  (2022 redundants) done
Evaluating the initial hessian          ...  (Almloef) done
Evaluating the coordinates              ...  done
Calculating the B-matrix                .... done
Calculating the G-matrix                .... done
Diagonalizing the G-matrix              .... done
The first mode is                       ....  125
The number of degrees of freedom        ....   51

    -----------------------------------------------------------------
                    Redundant Internal Coordinates


    -----------------------------------------------------------------
         Definition                    Initial Value    Approx d2E/dq
    -----------------------------------------------------------------
      1. B(N   2,O   0)                  1.2228         0.926372   
      2. B(N   2,O   1)                  1.2228         0.926265   
      3. B(C   4,N   2)                  1.4653         0.424308   
      4. B(C   5,N   3)                  1.3908         0.558017   
      5. B(C   6,C   4)                  1.3960         0.611137   
      6. B(C   7,C   4)                  1.3978         0.607194   
      7. B(C   8,C   5)                  1.4091         0.582475   
      8. B(C   8,C   6)                  1.3897         0.625557   
      9. B(C   9,C   7)                  1.3877         0.630155   
     10. B(C   9,C   5)                  1.4126         0.575052   
     11. B(H  10,C   6)                  1.0894         0.360900   
     12. B(H  11,C   7)                  1.0897         0.360449   
     13. B(H  12,C   8)                  1.0931         0.355979   
     14. B(H  13,C   9)                  1.0910         0.358740   
     15. B(H  14,N   3)                  1.0107         0.431585   
     16. B(H  15,N   3)                  1.0146         0.425437   
     17. B(O  16,H  15)                  2.7392         0.000754   
     18. B(O  16,H  13)                  2.5832         0.001337   
     19. B(H  17,H  13)                  2.5564         0.000315   
     20. B(H  17,O  16)                  0.9667         0.507337   
     21. B(H  18,C   5)                  2.7330         0.000861   
     22. B(H  18,H  13)                  2.6476         0.000226   
     23. B(H  18,H  15)                  2.1480         0.001414   
     24. B(H  18,N   3)                  2.1271         0.007143   
     25. B(H  18,O  16)                  0.9715         0.498526   
     26. A(O   1,N   2,C   4)          117.6528         0.427256   
     27. A(O   0,N   2,C   4)          117.6582         0.427265   
     28. A(O   0,N   2,O   1)          124.6889         0.489255   
     29. A(C   5,N   3,H  14)          116.0662         0.352161   
     30. A(H  14,N   3,H  18)          129.5682         0.173582   
     31. A(H  15,N   3,H  18)           77.4166         0.173308   
     32. A(C   5,N   3,H  15)          115.8525         0.351308   
     33. A(H  14,N   3,H  15)          112.7936         0.302312   
     34. A(C   5,N   3,H  18)           99.8326         0.193010   
     35. A(C   6,C   4,C   7)          121.1266         0.431322   
     36. A(N   2,C   4,C   7)          119.4821         0.401595   
     37. A(N   2,C   4,C   6)          119.3912         0.402053   
     38. A(C   8,C   5,H  18)          135.5441         0.155377   
     39. A(C   9,C   5,H  18)           84.5895         0.155184   
     40. A(N   3,C   5,C   9)          120.0301         0.417521   
     41. A(C   8,C   5,C   9)          119.0914         0.423478   
     42. A(N   3,C   5,H  18)           50.0744         0.154195   
     43. A(N   3,C   5,C   8)          120.8132         0.418476   
     44. A(C   8,C   6,H  10)          121.4804         0.353575   
     45. A(C   4,C   6,H  10)          119.2912         0.352183   
     46. A(C   4,C   6,C   8)          119.2278         0.433639   
     47. A(C   4,C   7,C   9)          119.6153         0.433705   
     48. A(C   9,C   7,H  11)          121.4362         0.353939   
     49. A(C   4,C   7,H  11)          118.9482         0.351723   
     50. A(C   6,C   8,H  12)          119.6932         0.352754   
     51. A(C   5,C   8,C   6)          120.6776         0.429912   
     52. A(C   5,C   8,H  12)          119.6287         0.348529   
     53. A(C   5,C   9,C   7)          120.2594         0.429488   
     54. A(C   7,C   9,H  13)          120.6568         0.353654   
     55. A(C   5,C   9,H  13)          119.0453         0.348230   
     56. A(O  16,H  13,H  18)           21.3599         0.097468   
     57. A(H  17,H  13,H  18)           33.8825         0.093940   
     58. A(C   9,H  13,H  18)           95.3271         0.119377   
     59. A(O  16,H  13,H  17)           21.6741         0.098135   
     60. A(C   9,H  13,O  16)          112.4817         0.145170   
     61. A(C   9,H  13,H  17)          102.7239         0.121771   
     62. A(N   3,H  15,H  18)           75.1308         0.136277   
     63. A(N   3,H  15,O  16)           90.6116         0.139679   
     64. A(O  16,H  15,H  18)           18.2840         0.100269   
     65. A(H  13,O  16,H  15)           54.5922         0.102753   
     66. A(H  15,O  16,H  18)           43.9216         0.141530   
     67. A(H  15,O  16,H  17)          120.0338         0.141739   
     68. A(H  17,O  16,H  18)          103.2000         0.318347   
     69. A(H  13,O  16,H  18)           83.0564         0.148808   
     70. A(H  13,O  16,H  17)           77.6021         0.149045   
     71. A(H  13,H  17,O  16)           80.7239         0.124032   
     72. A(H  15,H  18,O  16)          117.7944         0.138004   
     73. A(N   3,H  18,O  16)          139.1006         0.176388   
     74. A(C   5,H  18,H  13)           47.3930         0.096756   
     75. A(C   5,H  18,H  15)           47.7854         0.100750   
     76. A(N   3,H  18,C   5)           30.0930         0.109954   
     77. A(C   5,H  18,O  16)          121.7654         0.143776   
     78. A(H  13,H  18,H  15)           60.2333         0.095938   
     79. A(N   3,H  18,H  13)           66.3892         0.101373   
     80. A(H  13,H  18,O  16)           75.5837         0.121344   
     81. A(N   3,H  18,H  15)           27.4526         0.107746   
     82. D(C   7,C   4,N   2,O   0)    179.7070         0.014185   
     83. D(C   6,C   4,N   2,O   1)    179.8378         0.014185   
     84. D(C   6,C   4,N   2,O   0)     -0.1998         0.014185   
     85. D(C   7,C   4,N   2,O   1)     -0.2554         0.014185   
     86. D(C   9,C   5,N   3,H  15)     29.4331         0.029020   
     87. D(C   8,C   5,N   3,H  18)    125.7751         0.029020   
     88. D(C   8,C   5,N   3,H  15)   -153.5315         0.029020   
     89. D(C   9,C   5,N   3,H  18)    -51.2602         0.029020   
     90. D(C   9,C   5,N   3,H  14)    165.1802         0.029020   
     91. D(C   8,C   5,N   3,H  14)    -17.7845         0.029020   
     92. D(H  10,C   6,C   4,C   7)    179.9551         0.025800   
     93. D(H  10,C   6,C   4,N   2)     -0.1397         0.025800   
     94. D(C   8,C   6,C   4,C   7)      0.2249         0.025800   
     95. D(C   8,C   6,C   4,N   2)   -179.8699         0.025800   
     96. D(C   9,C   7,C   4,N   2)    179.9860         0.025450   
     97. D(H  11,C   7,C   4,N   2)     -0.1854         0.025450   
     98. D(C   9,C   7,C   4,C   6)     -0.1089         0.025450   
     99. D(H  11,C   7,C   4,C   6)    179.7197         0.025450   
    100. D(H  12,C   8,C   6,C   4)    179.7559         0.027108   
    101. D(C   5,C   8,C   6,H  10)   -179.6897         0.027108   
    102. D(C   5,C   8,C   6,C   4)      0.0343         0.027108   
    103. D(H  12,C   8,C   5,N   3)      2.8156         0.025323   
    104. D(H  12,C   8,C   5,C   9)    179.8784         0.025323   
    105. D(C   6,C   8,C   5,C   9)     -0.3998         0.025323   
    106. D(H  12,C   8,C   6,H  10)      0.0319         0.027108   
    107. D(C   6,C   8,C   5,N   3)   -177.4626         0.025323   
    108. D(C   6,C   8,C   5,H  18)   -114.7929         0.025323   
    109. D(H  13,C   9,C   5,N   3)     -0.1552         0.024649   
    110. D(C   7,C   9,C   5,H  18)    140.6721         0.024649   
    111. D(C   7,C   9,C   5,C   8)      0.5158         0.024649   
    112. D(C   7,C   9,C   5,N   3)    177.6021         0.024649   
    113. D(H  13,C   9,C   7,H  11)     -2.3691         0.027534   
    114. D(H  13,C   9,C   7,C   4)    177.4551         0.027534   
    115. D(C   5,C   9,C   7,H  11)    179.9101         0.027534   
    116. D(C   5,C   9,C   7,C   4)     -0.2657         0.027534   
    117. D(H  13,C   9,C   5,C   8)   -177.2415         0.024649   
    118. D(O  16,H  13,C   9,C   5)     51.6598         0.131272   
    119. D(O  16,H  13,C   9,C   7)   -126.0883         0.131272   
    120. D(H  18,H  13,C   9,C   5)     38.4888         0.131272   
    121. D(H  17,H  13,C   9,C   7)   -105.7422         0.131272   
    122. D(H  17,H  13,C   9,C   5)     72.0059         0.131272   
    123. D(O  16,H  15,N   3,C   5)    -85.1127         0.250603   
    124. D(H  18,H  15,N   3,C   5)    -94.9490         0.250603   
    125. D(H  18,H  15,N   3,H  14)    127.8906         0.250603   
    126. D(O  16,H  15,N   3,H  18)      9.8363         0.250603   
    127. D(O  16,H  15,N   3,H  14)    137.7269         0.250603   
    128. D(H  13,O  16,H  15,H  18)    121.6225         0.001500   
    129. D(H  13,O  16,H  15,N   3)     89.8670         0.001500   
    130. D(H  17,O  16,H  15,H  18)     77.2865         0.001500   
    131. D(H  17,O  16,H  15,N   3)     45.5310         0.001500   
    132. D(H  15,O  16,H  13,H  17)   -141.7223         0.001501   
    133. D(H  15,O  16,H  13,C   9)    -75.0436         0.001501   
    134. D(H  18,O  16,H  13,H  17)   -105.2067         0.001501   
    135. D(H  18,O  16,H  15,N   3)    -31.7555         0.001500   
    136. D(H  18,O  16,H  13,C   9)    -38.5280         0.001501   
    137. D(H  17,O  16,H  13,H  18)    105.2067         0.001501   
    138. D(H  17,O  16,H  13,C   9)     66.6787         0.001501   
    139. D(H  13,H  17,O  16,H  15)     35.6766         0.359902   
    140. D(H  13,H  17,O  16,H  18)     79.7061         0.359902   
    141. D(O  16,H  17,H  13,H  18)    -39.0835         0.001501   
    142. D(O  16,H  17,H  13,C   9)   -119.5563         0.001501   
    143. D(O  16,H  18,N   3,H  14)   -156.6631         0.001537   
    144. D(O  16,H  18,N   3,C   5)     67.1390         0.001537   
    145. D(H  13,H  18,O  16,H  17)    -75.4799         0.433057   
    146. D(H  15,H  18,O  16,H  13)    -44.3596         0.433057   
    147. D(H  15,H  18,O  16,H  17)   -119.8395         0.433057   
    148. D(N   3,H  18,O  16,H  13)    -21.8154         0.433057   
    149. D(N   3,H  18,O  16,H  17)    -97.2953         0.433057   
    150. D(C   5,H  18,H  15,O  16)   -108.9836         0.001523   
    151. D(H  13,H  18,H  15,O  16)    -51.2671         0.001523   
    152. D(H  13,H  18,H  15,N   3)     95.7424         0.001523   
    153. D(N   3,H  18,H  15,O  16)   -147.0096         0.001523   
    154. D(O  16,H  18,H  15,N   3)    147.0096         0.001523   
    155. D(H  15,H  18,H  13,H  17)    174.2991         0.001501   
    156. D(H  15,H  18,H  13,C   9)    -80.7531         0.001501   
    157. D(N   3,H  18,H  13,O  16)    164.6010         0.001501   
    158. D(N   3,H  18,H  13,H  17)   -155.6606         0.001501   
    159. D(N   3,H  18,H  13,C   9)    -50.7128         0.001501   
    160. D(O  16,H  18,H  13,H  17)     39.7384         0.001501   
    161. D(O  16,H  18,H  13,C   9)    144.6862         0.001501   
    162. D(H  15,H  18,C   5,C   8)   -130.2843         0.001501   
    163. D(H  15,H  18,C   5,N   3)    -34.4993         0.001501   
    164. D(N   3,H  18,C   5,C   9)    137.2880         0.001501   
    165. D(N   3,H  18,C   5,C   8)    -95.7850         0.001501   
    166. D(O  16,H  18,C   5,C   9)      2.4898         0.001501   
    167. D(C   5,H  18,H  15,N   3)     38.0259         0.001523   
    168. D(O  16,H  18,C   5,C   8)    129.4168         0.001501   
    169. D(O  16,H  18,C   5,N   3)   -134.7982         0.001501   
    170. D(H  13,H  18,N   3,H  14)   -179.7918         0.001537   
    171. D(N   3,H  18,O  16,H  15)     22.5442         0.433057   
    172. D(H  13,H  18,N   3,C   5)     44.0103         0.001537   
    173. D(H  15,H  18,N   3,H  14)   -109.2978         0.001537   
    174. D(H  15,H  18,N   3,C   5)    114.5042         0.001537   
    175. D(H  13,H  18,O  16,H  15)     44.3596         0.433057   
    176. D(O  16,H  18,N   3,H  15)    -47.3652         0.001537   
    -----------------------------------------------------------------

Number of atoms                         .... 19
Number of degrees of freedom            .... 176


         *************************************************************
         *                GEOMETRY OPTIMIZATION CYCLE   1            *
         *************************************************************
---------------------------------
CARTESIAN COORDINATES (ANGSTROEM)
---------------------------------
  O      2.771979    0.931959    0.305904
  O      2.609950   -1.134396   -0.323691
  N      2.125285   -0.055230   -0.014187
  N     -3.500498    0.406580   -0.115066
  C      0.664853    0.063666   -0.028763
  C     -2.116382    0.286748   -0.051003
  C      0.072826    1.278410    0.321616
  C     -0.111536   -1.039516   -0.394821
  C     -1.312571    1.386585    0.309262
  C     -1.494814   -0.930081   -0.409295
  H      0.706576    2.118706    0.602766
  H      0.387907   -1.969269   -0.666192
  H     -1.784299    2.333026    0.586141
  H     -2.115744   -1.767208   -0.731798
  H     -3.900153    1.201287    0.364774
  H     -4.026009   -0.448252    0.035059
  O     -3.762618   -1.109420   -2.610117
  H     -2.904568   -1.023975   -3.047079
  H     -3.833744   -0.286867   -2.098183

----------------------------
CARTESIAN COORDINATES (A.U.)
----------------------------
  NO LB      ZA    FRAG     MASS         X           Y           Z
   0 O     8.0000    0    15.999    5.238282    1.761148    0.578075
   1 O     8.0000    0    15.999    4.932090   -2.143697   -0.611687
   2 N     7.0000    0    14.007    4.016206   -0.104370   -0.026809
   3 N     7.0000    0    14.007   -6.614982    0.768325   -0.217443
   4 C     6.0000    0    12.011    1.256389    0.120311   -0.054354
   5 C     6.0000    0    12.011   -3.999382    0.541876   -0.096381
   6 C     6.0000    0    12.011    0.137621    2.415844    0.607766
   7 C     6.0000    0    12.011   -0.210772   -1.964400   -0.746104
   8 C     6.0000    0    12.011   -2.480401    2.620265    0.584421
   9 C     6.0000    0    12.011   -2.824788   -1.757598   -0.773455
  10 H     1.0000    0     1.008    1.335234    4.003774    1.139063
  11 H     1.0000    0     1.008    0.733037   -3.721379   -1.258921
  12 H     1.0000    0     1.008   -3.371836    4.408781    1.107646
  13 H     1.0000    0     1.008   -3.998178   -3.339540   -1.382897
  14 H     1.0000    0     1.008   -7.370220    2.270104    0.689322
  15 H     1.0000    0     1.008   -7.608055   -0.847074    0.066253
  16 O     8.0000    0    15.999   -7.110317   -2.096499   -4.932407
  17 H     1.0000    0     1.008   -5.488839   -1.935032   -5.758145
  18 H     1.0000    0     1.008   -7.244725   -0.542099   -3.964991

--------------------------------
INTERNAL COORDINATES (ANGSTROEM)
--------------------------------
 O      0   0   0     0.000000000000     0.00000000     0.00000000
 O      1   0   0     2.166210175193     0.00000000     0.00000000
 N      1   2   0     1.222789775530    27.65591276     0.00000000
 N      3   1   2     5.645606412587   117.75226851   180.54401235
 C      3   1   2     1.465336225647   117.65824789   180.04055827
 C      4   3   1     1.390769618506     1.63632305   277.67560164
 C      5   3   1     1.396016990265   119.39119802   359.80019093
 C      5   3   1     1.397779187166   119.48214635   179.70699100
 C      7   5   3     1.389669054744   119.22776377   180.13014671
 C      8   5   3     1.387675532424   119.61534187   179.98596846
 H      7   5   3     1.089395618323   119.29123802   359.86030112
 H      8   5   3     1.089736640907   118.94820923   359.81456551
 H      9   7   5     1.093133284811   119.69317411   179.75590627
 H     10   8   5     1.091029642876   120.65676379   177.45509264
 H      4   3   1     1.010707080645   116.73519666   343.91556328
 H      4   3   1     1.014612769543   116.39533263   206.67006613
 O     14  10   8     2.583207478894   112.48167300   233.91169299
 H     17  14  10     0.966687809735    77.60206782    66.67867754
 H     17  14  10     0.971457136669    83.05644203   321.47202009

---------------------------
INTERNAL COORDINATES (A.U.)
---------------------------
 O      0   0   0     0.000000000000     0.00000000     0.00000000
 O      1   0   0     4.093543979628     0.00000000     0.00000000
 N      1   2   0     2.310737795111    27.65591276     0.00000000
 N      3   1   2    10.668649979699   117.75226851   180.54401235
 C      3   1   2     2.769084160586   117.65824789   180.04055827
 C      4   3   1     2.628173694355     1.63632305   277.67560164
 C      5   3   1     2.638089789901   119.39119802   359.80019093
 C      5   3   1     2.641419859438   119.48214635   179.70699100
 C      7   5   3     2.626093930251   119.22776377   180.13014671
 C      8   5   3     2.622326719025   119.61534187   179.98596846
 H      7   5   3     2.058659370124   119.29123802   359.86030112
 H      8   5   3     2.059303809414   118.94820923   359.81456551
 H      9   7   5     2.065722536166   119.69317411   179.75590627
 H     10   8   5     2.061747229026   120.65676379   177.45509264
 H      4   3   1     1.909959584034   116.73519666   343.91556328
 H      4   3   1     1.917340266415   116.39533263   206.67006613
 O     14  10   8     4.881554682207   112.48167300   233.91169299
 H     17  14  10     1.826775217399    77.60206782    66.67867754
 H     17  14  10     1.835787939148    83.05644203   321.47202009

---------------------
BASIS SET INFORMATION
---------------------
There are 4 groups of distinct atoms

 Group   1 Type O   : 7s4p1d contracted to 3s2p1d pattern {511/31/1}
 Group   2 Type N   : 7s4p1d contracted to 3s2p1d pattern {511/31/1}
 Group   3 Type C   : 7s4p1d contracted to 3s2p1d pattern {511/31/1}
 Group   4 Type H   : 4s1p contracted to 2s1p pattern {31/1}

Atom   0O    basis set group =>   1
Atom   1O    basis set group =>   1
Atom   2N    basis set group =>   2
Atom   3N    basis set group =>   2
Atom   4C    basis set group =>   3
Atom   5C    basis set group =>   3
Atom   6C    basis set group =>   3
Atom   7C    basis set group =>   3
Atom   8C    basis set group =>   3
Atom   9C    basis set group =>   3
Atom  10H    basis set group =>   4
Atom  11H    basis set group =>   4
Atom  12H    basis set group =>   4
Atom  13H    basis set group =>   4
Atom  14H    basis set group =>   4
Atom  15H    basis set group =>   4
Atom  16O    basis set group =>   1
Atom  17H    basis set group =>   4
Atom  18H    basis set group =>   4
---------------------------------
AUXILIARY/J BASIS SET INFORMATION
---------------------------------
There are 4 groups of distinct atoms

 Group   1 Type O   : 12s5p4d2f1g contracted to 6s4p3d1f1g pattern {711111/2111/211/2/1}
 Group   2 Type N   : 12s5p4d2f1g contracted to 6s4p3d1f1g pattern {711111/2111/211/2/1}
 Group   3 Type C   : 12s5p4d2f1g contracted to 6s4p3d1f1g pattern {711111/2111/211/2/1}
 Group   4 Type H   : 5s2p1d contracted to 3s1p1d pattern {311/2/1}

Atom   0O    basis set group =>   1
Atom   1O    basis set group =>   1
Atom   2N    basis set group =>   2
Atom   3N    basis set group =>   2
Atom   4C    basis set group =>   3
Atom   5C    basis set group =>   3
Atom   6C    basis set group =>   3
Atom   7C    basis set group =>   3
Atom   8C    basis set group =>   3
Atom   9C    basis set group =>   3
Atom  10H    basis set group =>   4
Atom  11H    basis set group =>   4
Atom  12H    basis set group =>   4
Atom  13H    basis set group =>   4
Atom  14H    basis set group =>   4
Atom  15H    basis set group =>   4
Atom  16O    basis set group =>   1
Atom  17H    basis set group =>   4
Atom  18H    basis set group =>   4
--------------------------------------------------------------------------
By default, for Open MPI 4.0 and later, infiniband ports on a device
are not used by default.  The intent is to use UCX for these devices.
You can override this policy by setting the btl_openib_allow_ib MCA parameter
to true.

  Local host:              psid10
  Local adapter:           mlx4_0
  Local port:              1

--------------------------------------------------------------------------
--------------------------------------------------------------------------
WARNING: There was an error initializing an OpenFabrics device.

  Local host:   psid10
  Local device: mlx4_0
--------------------------------------------------------------------------


           ************************************************************
           *        Program running with 28 parallel MPI-processes    *
           *              working on a common directory               *
           ************************************************************
------------------------------------------------------------------------------
                             ORCA STARTUP CALCULATIONS
                           -- RI-GTO INTEGRALS CHOSEN --
------------------------------------------------------------------------------
------------------------------------------------------------------------------
                   ___                                                        
                  /   \      - P O W E R E D   B Y -                         
                 /     \                                                     
                 |  |  |   _    _      __       _____    __    __             
                 |  |  |  | |  | |    /  \     |  _  \  |  |  /  |          
                  \  \/   | |  | |   /    \    | | | |  |  | /  /          
                 / \  \   | |__| |  /  /\  \   | |_| |  |  |/  /          
                |  |  |   |  __  | /  /__\  \  |    /   |      \           
                |  |  |   | |  | | |   __   |  |    \   |  |\   \          
                \     /   | |  | | |  |  |  |  | |\  \  |  | \   \       
                 \___/    |_|  |_| |__|  |__|  |_| \__\ |__|  \__/        
                                                                              
                      - O R C A' S   B I G   F R I E N D -                    
                                      &                                       
                       - I N T E G R A L  F E E D E R -                       
                                                                              
 v1 FN, 2020, v2 2021, v3 2022-2024                                           
------------------------------------------------------------------------------


----------------------
SHARK INTEGRAL PACKAGE
----------------------

Number of atoms                             ...     19
Number of basis functions                   ...    194
Number of shells                            ...     90
Maximum angular momentum                    ...      2
Integral batch strategy                     ... SHARK/LIBINT Hybrid
RI-J (if used) integral strategy            ... SPLIT-RIJ (Revised 2003 algorithm where possible)
Printlevel                                  ...      1
Contraction scheme used                     ... SEGMENTED contraction
Prescreening option                         ... SCHWARTZ
   Thresh                                   ... 2.500e-11
   Tcut                                     ... 2.500e-12
   Tpresel                                  ... 2.500e-12 
Coulomb Range Separation                    ... NOT USED
Exchange Range Separation                   ... NOT USED
Multipole approximations                    ... NOT USED
Finite Nucleus Model                        ... NOT USED
CABS basis                                  ... NOT available
Auxiliary Coulomb fitting basis             ... AVAILABLE
   # of basis functions in Aux-J            ...    627
   # of shells in Aux-J                     ...    205
   Maximum angular momentum in Aux-J        ...      4
Auxiliary J/K fitting basis                 ... NOT available
Auxiliary Correlation fitting basis         ... NOT available
Auxiliary 'external' fitting basis          ... NOT available

Checking pre-screening integrals            ... done (  0.0 sec) Dimension = 90
Check shell pair data                       ... done (  0.0 sec)
Shell pair information
Shell pair cut-off parameter TPreSel        ...   2.5e-12
Total number of shell pairs                 ...      4095
Shell pairs after pre-screening             ...      3540
Total number of primitive shell pairs       ...     15045
Primitive shell pairs kept                  ...      9088
          la=0 lb=0:   1069 shell pairs
          la=1 lb=0:   1289 shell pairs
          la=1 lb=1:    410 shell pairs
          la=2 lb=0:    444 shell pairs
          la=2 lb=1:    275 shell pairs
          la=2 lb=2:     53 shell pairs

Calculating one electron integrals          ... done (  0.0 sec)
Calculating RI/J V-Matrix + Cholesky decomp.... done (  0.0 sec)
Calculating Nuclear repulsion               ... done (  0.0 sec) ENN=    589.694143513805 Eh

Diagonalization of the overlap matrix:
Smallest eigenvalue                        ... 2.535e-04
Time for diagonalization                   ...    0.004 sec
Threshold for overlap eigenvalues          ... 1.000e-07
Number of eigenvalues below threshold      ... 0
Time for construction of square roots      ...    0.003 sec
Total time needed                          ...    0.016 sec

-------------------
DFT GRID GENERATION
-------------------

General Integration Accuracy     IntAcc      ... 4.388
Radial Grid Type                 RadialGrid  ... OptM3 with GC (2021)
Angular Grid (max. ang.)         AngularGrid ... 4 (Lebedev-302)
Angular grid pruning method      GridPruning ... 4 (adaptive)
Weight generation scheme         WeightScheme... mBecke (2022)
Basis function cutoff            BFCut       ... 1.0000e-11
Integration weight cutoff        WCut        ... 1.0000e-14
Partially contracted basis set               ... off
Rotationally invariant grid construction     ... off
Angular grids for H and He will be reduced by one unit

Total number of grid points                  ...    92096
Total number of batches                      ...     1449
Average number of points per batch           ...       63
Average number of grid points per atom       ...     4847

--------------------
COSX GRID GENERATION
--------------------

GRIDX 1
-------
General Integration Accuracy     IntAcc      ... 3.816
Radial Grid Type                 RadialGrid  ... OptM3 with GC (2021)
Angular Grid (max. ang.)         AngularGrid ... 1 (Lebedev-50)
Angular grid pruning method      GridPruning ... 4 (adaptive)
Weight generation scheme         WeightScheme... mBecke (2022)
Basis function cutoff            BFCut       ... 1.0000e-11
Integration weight cutoff        WCut        ... 1.0000e-14
Partially contracted basis set               ... on
Rotationally invariant grid construction     ... off
Angular grids for H and He will be reduced by one unit

Total number of grid points                  ...    11732
Total number of batches                      ...      103
Average number of points per batch           ...      113
Average number of grid points per atom       ...      617
UseSFitting                                  ... on

GRIDX 2
-------
General Integration Accuracy     IntAcc      ... 4.020
Radial Grid Type                 RadialGrid  ... OptM3 with GC (2021)
Angular Grid (max. ang.)         AngularGrid ... 2 (Lebedev-110)
Angular grid pruning method      GridPruning ... 4 (adaptive)
Weight generation scheme         WeightScheme... mBecke (2022)
Basis function cutoff            BFCut       ... 1.0000e-11
Integration weight cutoff        WCut        ... 1.0000e-14
Partially contracted basis set               ... on
Rotationally invariant grid construction     ... off
Angular grids for H and He will be reduced by one unit

Total number of grid points                  ...    25923
Total number of batches                      ...      211
Average number of points per batch           ...      122
Average number of grid points per atom       ...     1364
UseSFitting                                  ... on

GRIDX 3
-------
General Integration Accuracy     IntAcc      ... 4.338
Radial Grid Type                 RadialGrid  ... OptM3 with GC (2021)
Angular Grid (max. ang.)         AngularGrid ... 3 (Lebedev-194)
Angular grid pruning method      GridPruning ... 4 (adaptive)
Weight generation scheme         WeightScheme... mBecke (2022)
Basis function cutoff            BFCut       ... 1.0000e-11
Integration weight cutoff        WCut        ... 1.0000e-14
Partially contracted basis set               ... on
Rotationally invariant grid construction     ... off
Angular grids for H and He will be reduced by one unit

Total number of grid points                  ...    56898
Total number of batches                      ...      452
Average number of points per batch           ...      125
Average number of grid points per atom       ...     2995
UseSFitting                                  ... on
Initializing property integral containers    ... done (  0.0 sec)

SHARK setup successfully completed in   1.0 seconds

Maximum memory used throughout the entire STARTUP-calculation: 23.5 MB
[psid10:218894] 27 more processes have sent help message help-mpi-btl-openib.txt / ib port not selected
[psid10:218894] Set MCA parameter "orte_base_help_aggregate" to 0 to see all help / error messages
[psid10:218894] 27 more processes have sent help message help-mpi-btl-openib.txt / error in device init
--------------------------------------------------------------------------
By default, for Open MPI 4.0 and later, infiniband ports on a device
are not used by default.  The intent is to use UCX for these devices.
You can override this policy by setting the btl_openib_allow_ib MCA parameter
to true.

  Local host:              psid10
  Local adapter:           mlx4_0
  Local port:              1

--------------------------------------------------------------------------
--------------------------------------------------------------------------
WARNING: There was an error initializing an OpenFabrics device.

  Local host:   psid10
  Local device: mlx4_0
--------------------------------------------------------------------------


           ************************************************************
           *        Program running with 28 parallel MPI-processes    *
           *              working on a common directory               *
           ************************************************************
-------------------------------------------------------------------------------
                                 ORCA GUESS
                   Start orbitals & Density for SCF / CASSCF
-------------------------------------------------------------------------------

------------
SCF SETTINGS
------------
Hamiltonian:
 Density Functional     Method          .... DFT(GTOs)
 Exchange Functional    Exchange        .... B88
   X-Alpha parameter    XAlpha          ....  0.666667
   Becke's b parameter  XBeta           ....  0.004200
 Correlation Functional Correlation     .... LYP
 LDA part of GGA corr.  LDAOpt          .... VWN-5
 Gradients option       PostSCFGGA      .... off
 Hybrid DFT is turned on
   Fraction HF Exchange ScalHFX         ....  0.200000
   Scaling of DF-GGA-X  ScalDFX         ....  0.720000
   Scaling of DF-GGA-C  ScalDFC         ....  0.810000
   Scaling of DF-LDA-C  ScalLDAC        ....  1.000000
   Perturbative correction              ....  0.000000
   NL short-range parameter             ....  4.800000
 RI-approximation to the Coulomb term is turned on
   Number of AuxJ basis functions       .... 627
   RIJ-COSX (HFX calculated with COS-X)).... on


General Settings:
 Integral files         IntName         .... 4nitroaniline_water_2_OPT
 Hartree-Fock type      HFTyp           .... RHF
 Total Charge           Charge          ....    0
 Multiplicity           Mult            ....    1
 Number of Electrons    NEL             ....   82
 Basis Dimension        Dim             ....  194
 Nuclear Repulsion      ENuc            ....    589.6941435138 Eh

Convergence Acceleration:
 AO-DIIS                CNVDIIS         .... on
   Start iteration      DIISMaxIt       ....    12
   Startup error        DIISStart       ....  0.200000
   # of expansion vecs  DIISMaxEq       ....     5
   Bias factor          DIISBfac        ....   1.050
   Max. coefficient     DIISMaxC        ....  10.000
 MO-DIIS                CNVKDIIS        .... off
 Trust-Rad. Augm. Hess. CNVTRAH         .... auto
   Auto Start mean grad. ratio tolernc. ....  1.125000
   Auto Start start iteration           ....    50
   Auto Start num. interpolation iter.  ....    10
   Max. Number of Micro iterations      ....    24
   Max. Number of Macro iterations      .... Maxiter - #DIIS iter
   Number of Davidson start vectors     ....     2
   Converg. threshold    (grad. norm)   ....   1.000e-05
   Grad. Scal. Fac. for Micro threshold ....   0.100
   Minimum threshold for Micro iter.    ....   1.000e-02
   NR start threshold (gradient norm)   ....   1.000e-04
   Initial trust radius                 ....   0.400
   Minimum AH scaling param. (alpha)    ....   1.000
   Maximum AH scaling param. (alpha)    .... 1000.000
   Quad. conv. algorithm                .... NR
   White noise on init. David. guess    .... on
   Maximum white noise                  ....   0.010
   Pseudo random numbers                .... off
   Inactive MOs                         .... canonical
   Orbital update algorithm             .... Taylor
   Preconditioner                       .... Diag
   Full preconditioner red. dimension   ....   250
 SOSCF                  CNVSOSCF        .... on
   Start iteration      SOSCFMaxIt      ....   150
   Startup grad/error   SOSCFStart      ....  0.003300
   Hessian update       SOSCFHessUp     .... L-BFGS
 Level Shifting         CNVShift        .... on
   Level shift para.    LevelShift      ....    0.2500
   Turn off err/grad.   ShiftErr        ....    0.0010
 Zerner damping         CNVZerner       .... off
 Static damping         CNVDamp         .... on
   Fraction old density DampFac         ....    0.7000
   Max. Damping (<1)    DampMax         ....    0.9800
   Min. Damping (>=0)   DampMin         ....    0.0000
   Turn off err/grad.   DampErr         ....    0.1000

SCF Procedure:
 Maximum # iterations   MaxIter         ....   125
 SCF integral mode      SCFMode         .... Direct
   Integral package                     .... SHARK and LIBINT hybrid scheme
 Reset frequency        DirectResetFreq ....    20
 Integral Threshold     Thresh          ....  2.500e-11 Eh
 Primitive CutOff       TCut            ....  2.500e-12 Eh

Convergence Tolerance:
 Convergence Check Mode ConvCheckMode   .... Total+1el-Energy
 Convergence forced     ConvForced      .... 0
 Energy Change          TolE            ....  1.000e-08 Eh
 1-El. energy change                    ....  1.000e-05 Eh
 Orbital Gradient       TolG            ....  1.000e-05
 Orbital Rotation angle TolX            ....  1.000e-05
 DIIS Error             TolErr          ....  5.000e-07

------------------------------
INITIAL GUESS: MODEL POTENTIAL
------------------------------
Loading Hartree-Fock densities                     ... done
Calculating cut-offs                               ... done
Initializing the effective Hamiltonian             ... done
Setting up the integral package (SHARK)            ... done
Starting the Coulomb interaction                   ... done (   0.0 sec)
Making the grid                                    ... done (   0.1 sec)
Mapping shells                                     ... done
Starting the XC term evaluation                    ... done (   0.0 sec)
  promolecular density results
     # of electrons  =     81.995692837
     EX              =    -70.961283792
     EC              =     -2.834617065
     EX+EC           =    -73.795900856
Transforming the Hamiltonian                       ... done (   0.0 sec)
Diagonalizing the Hamiltonian                      ... done (   0.0 sec)
Back transforming the eigenvectors                 ... done (   0.0 sec)
Now organizing SCF variables                       ... done
                      ------------------
                      INITIAL GUESS DONE (   0.2 sec)
                      ------------------
             **** ENERGY FILE WAS UPDATED (4nitroaniline_water_2_OPT.en.tmp) ****
Finished Guess after   1.0 sec
Maximum memory used throughout the entire GUESS-calculation: 13.5 MB
[psid10:218992] 27 more processes have sent help message help-mpi-btl-openib.txt / ib port not selected
[psid10:218992] Set MCA parameter "orte_base_help_aggregate" to 0 to see all help / error messages
[psid10:218992] 27 more processes have sent help message help-mpi-btl-openib.txt / error in device init
--------------------------------------------------------------------------
By default, for Open MPI 4.0 and later, infiniband ports on a device
are not used by default.  The intent is to use UCX for these devices.
You can override this policy by setting the btl_openib_allow_ib MCA parameter
to true.

  Local host:              psid10
  Local adapter:           mlx4_0
  Local port:              1

--------------------------------------------------------------------------
--------------------------------------------------------------------------
WARNING: There was an error initializing an OpenFabrics device.

  Local host:   psid10
  Local device: mlx4_0
--------------------------------------------------------------------------


           ************************************************************
           *        Program running with 28 parallel MPI-processes    *
           *              working on a common directory               *
           ************************************************************

-------------------------------------------------------------------------------------------
                                      ORCA LEAN-SCF
                              memory conserving SCF solver
-------------------------------------------------------------------------------------------

----------------------------------------D-I-I-S--------------------------------------------
Iteration    Energy (Eh)           Delta-E    RMSDP     MaxDP     DIISErr   Damp  Time(sec)
-------------------------------------------------------------------------------------------
               ***  Starting incremental Fock matrix formation  ***
    1    -567.4495248939156227     0.00e+00  4.02e-03  8.77e-02  2.99e-01  0.700   0.4
    2    -567.6270986855497540    -1.78e-01  2.50e-03  4.73e-02  1.24e-01  0.700   0.3
                               ***Turning on AO-DIIS***
    3    -567.6889396481919903    -6.18e-02  1.06e-03  1.67e-02  3.61e-02  0.700   0.3
    4    -567.7285239913499026    -3.96e-02  1.83e-03  2.90e-02  1.64e-02  0.000   0.3
    5    -567.8175226351679612    -8.90e-02  3.49e-04  7.86e-03  5.68e-03  0.000   0.3
                              *** Initializing SOSCF ***
---------------------------------------S-O-S-C-F--------------------------------------
Iteration    Energy (Eh)           Delta-E    RMSDP     MaxDP     MaxGrad    Time(sec)
--------------------------------------------------------------------------------------
    6    -567.8179835525468206    -4.61e-04  1.22e-04  3.49e-03  1.63e-03     0.3
               *** Restarting incremental Fock matrix formation ***
    7    -567.8179909612681513    -7.41e-06  7.89e-05  1.95e-03  3.55e-04     0.4
    8    -567.8179903449324684     6.16e-07  3.39e-05  7.37e-04  4.74e-04     0.3
    9    -567.8179957983195436    -5.45e-06  1.57e-05  2.53e-04  9.09e-05     0.4
   10    -567.8179957378386007     6.05e-08  7.93e-06  2.03e-04  1.02e-04     0.3
   11    -567.8179960541594937    -3.16e-07  5.17e-06  1.37e-04  4.06e-05     0.3
   12    -567.8179960215784376     3.26e-08  3.45e-06  1.15e-04  8.36e-05     0.3
   13    -567.8179960778004443    -5.62e-08  2.61e-06  8.50e-05  2.38e-05     0.3
[psid10:219085] 27 more processes have sent help message help-mpi-btl-openib.txt / ib port not selected
[psid10:219085] Set MCA parameter "orte_base_help_aggregate" to 0 to see all help / error messages
[psid10:219085] 27 more processes have sent help message help-mpi-btl-openib.txt / error in device init
   14    -567.8179960520997156     2.57e-08  1.75e-06  5.70e-05  3.86e-05     0.3
   15    -567.8179960816753464    -2.96e-08  5.08e-07  9.86e-06  3.46e-06     0.3
   16    -567.8179960818097243    -1.34e-10  3.22e-07  6.31e-06  4.98e-06     0.3
                 **** Energy Check signals convergence ****

               *****************************************************
               *                     SUCCESS                       *
               *           SCF CONVERGED AFTER  16 CYCLES          *
               *****************************************************

Recomputing exchange energy using gridx3       ... done (    0.336 sec)
Old exchange energy                            :    -14.332660967 Eh
New exchange energy                            :    -14.332680767 Eh
Exchange energy change after final integration :     -0.000019799 Eh
Total energy after final integration           :   -567.818015881 Eh
             **** ENERGY FILE WAS UPDATED (4nitroaniline_water_2_OPT.en.tmp) ****

----------------
TOTAL SCF ENERGY
----------------

Total Energy       :       -567.81801588118947 Eh          -15451.11373 eV

Components:
Nuclear Repulsion  :        589.69414351380510 Eh           16046.39343 eV
Electronic Energy  :      -1157.51213959561483 Eh          -31497.50662 eV
One Electron Energy:      -1942.87165903233449 Eh          -52868.22561 eV
Two Electron Energy:        785.35951943671978 Eh           21370.71899 eV

Virial components:
Potential Energy   :      -1130.95615537229287 Eh          -30774.88155 eV
Kinetic Energy     :        563.13813949110352 Eh           15323.76782 eV
Virial Ratio       :          2.00831035240184

DFT components:
N(Alpha)           :       41.000006100907 electrons
N(Beta)            :       41.000006100907 electrons
N(Total)           :       82.000012201815 electrons
E(X)               :      -57.072613342588 Eh       
E(C)               :       -3.340626616174 Eh       
E(XC)              :      -60.413239958762 Eh       

---------------
SCF CONVERGENCE
---------------

  Last Energy change         ...    1.3438e-10  Tolerance :   1.0000e-08
  Last MAX-Density change    ...    6.3087e-06  Tolerance :   1.0000e-07
  Last RMS-Density change    ...    3.2187e-07  Tolerance :   5.0000e-09
  Last DIIS Error            ...    1.6320e-03  Tolerance :   5.0000e-07
  Last Orbital Gradient      ...    4.9816e-06  Tolerance :   1.0000e-05
  Last Orbital Rotation      ...    2.8916e-06  Tolerance :   1.0000e-05


----------------
ORBITAL ENERGIES
----------------

  NO   OCC          E(Eh)            E(eV) 
   0   2.0000     -19.150840      -521.1208 
   1   2.0000     -19.150808      -521.1200 
   2   2.0000     -19.121445      -520.3210 
   3   2.0000     -14.549366      -395.9084 
   4   2.0000     -14.371848      -391.0779 
   5   2.0000     -10.261877      -279.2399 
   6   2.0000     -10.238466      -278.6028 
   7   2.0000     -10.218948      -278.0717 
   8   2.0000     -10.217613      -278.0354 
   9   2.0000     -10.213272      -277.9173 
  10   2.0000     -10.208895      -277.7982 
  11   2.0000      -1.211339       -32.9622 
  12   2.0000      -1.036924       -28.2161 
  13   2.0000      -0.981035       -26.6953 
  14   2.0000      -0.945049       -25.7161 
  15   2.0000      -0.872294       -23.7363 
  16   2.0000      -0.786213       -21.3939 
  17   2.0000      -0.767422       -20.8826 
  18   2.0000      -0.685570       -18.6553 
  19   2.0000      -0.640484       -17.4285 
  20   2.0000      -0.593103       -16.1392 
  21   2.0000      -0.556757       -15.1501 
  22   2.0000      -0.547690       -14.9034 
  23   2.0000      -0.531483       -14.4624 
  24   2.0000      -0.531096       -14.4519 
  25   2.0000      -0.511936       -13.9305 
  26   2.0000      -0.496972       -13.5233 
  27   2.0000      -0.464412       -12.6373 
  28   2.0000      -0.460074       -12.5192 
  29   2.0000      -0.447792       -12.1850 
  30   2.0000      -0.427566       -11.6347 
  31   2.0000      -0.414831       -11.2881 
  32   2.0000      -0.372508       -10.1364 
  33   2.0000      -0.371380       -10.1058 
  34   2.0000      -0.344904        -9.3853 
  35   2.0000      -0.303552        -8.2601 
  36   2.0000      -0.301895        -8.2150 
  37   2.0000      -0.295882        -8.0513 
  38   2.0000      -0.284254        -7.7349 
  39   2.0000      -0.281139        -7.6502 
  40   2.0000      -0.244598        -6.6558 
  41   0.0000      -0.079542        -2.1644 
  42   0.0000      -0.033523        -0.9122 
  43   0.0000       0.006142         0.1671 
  44   0.0000       0.031921         0.8686 
  45   0.0000       0.061799         1.6816 
  46   0.0000       0.066155         1.8002 
  47   0.0000       0.084860         2.3092 
  48   0.0000       0.115741         3.1495 
  49   0.0000       0.131225         3.5708 
  50   0.0000       0.140995         3.8367 
  51   0.0000       0.157994         4.2992 
*Only the first 10 virtual orbitals were printed.

                    ********************************
                    * MULLIKEN POPULATION ANALYSIS *
                    ********************************

-----------------------
MULLIKEN ATOMIC CHARGES
-----------------------
   0 O :   -0.251220
   1 O :   -0.250412
   2 N :    0.235074
   3 N :   -0.089887
   4 C :    0.173180
   5 C :    0.074342
   6 C :   -0.021649
   7 C :   -0.020519
   8 C :   -0.019007
   9 C :   -0.046975
  10 H :    0.006577
  11 H :    0.007296
  12 H :   -0.027843
  13 H :   -0.017826
  14 H :    0.115662
  15 H :    0.136736
  16 O :   -0.298852
  17 H :    0.156411
  18 H :    0.138913
Sum of atomic charges:   -0.0000000

--------------------------------
MULLIKEN REDUCED ORBITAL CHARGES
--------------------------------
  0 O s       :     3.857185  s :     3.857185
      pz      :     1.414074  p :     4.371969
      px      :     1.633752
      py      :     1.324143
      dz2     :     0.002948  d :     0.022065
      dxz     :     0.002536
      dyz     :     0.004772
      dx2y2   :     0.004778
      dxy     :     0.007032

  1 O s       :     3.857506  s :     3.857506
      pz      :     1.416522  p :     4.370835
      px      :     1.723552
      py      :     1.230760
      dz2     :     0.002926  d :     0.022072
      dxz     :     0.001606
      dyz     :     0.005654
      dx2y2   :     0.005884
      dxy     :     0.006002

  2 N s       :     3.293523  s :     3.293523
      pz      :     1.168949  p :     3.355808
      px      :     1.138541
      py      :     1.048319
      dz2     :     0.009417  d :     0.115595
      dxz     :     0.009696
      dyz     :     0.024652
      dx2y2   :     0.040390
      dxy     :     0.031440

  3 N s       :     3.324639  s :     3.324639
      pz      :     1.616362  p :     3.748056
      px      :     1.069275
      py      :     1.062419
      dz2     :     0.001464  d :     0.017192
      dxz     :     0.003368
      dyz     :     0.002800
      dx2y2   :     0.004457
      dxy     :     0.005103

  4 C s       :     2.997868  s :     2.997868
      pz      :     1.085361  p :     2.781070
      px      :     0.812496
      py      :     0.883212
      dz2     :     0.005162  d :     0.047882
      dxz     :     0.005299
      dyz     :     0.006677
      dx2y2   :     0.019318
      dxy     :     0.011426

  5 C s       :     2.976487  s :     2.976487
      pz      :     0.948437  p :     2.888329
      px      :     0.902763
      py      :     1.037129
      dz2     :     0.005324  d :     0.060842
      dxz     :     0.015172
      dyz     :     0.006415
      dx2y2   :     0.018608
      dxy     :     0.015324

  6 C s       :     3.280248  s :     3.280248
      pz      :     0.925009  p :     2.706246
      px      :     0.861892
      py      :     0.919344
      dz2     :     0.002982  d :     0.035156
      dxz     :     0.006832
      dyz     :     0.004334
      dx2y2   :     0.009367
      dxy     :     0.011641

  7 C s       :     3.282882  s :     3.282882
      pz      :     0.929305  p :     2.702487
      px      :     0.887160
      py      :     0.886022
      dz2     :     0.003019  d :     0.035150
      dxz     :     0.007370
      dyz     :     0.003691
      dx2y2   :     0.008883
      dxy     :     0.012187

  8 C s       :     3.229787  s :     3.229787
      pz      :     1.036972  p :     2.756686
      px      :     0.876857
      py      :     0.842857
      dz2     :     0.002782  d :     0.032535
      dxz     :     0.005701
      dyz     :     0.003204
      dx2y2   :     0.009033
      dxy     :     0.011815

  9 C s       :     3.258066  s :     3.258066
      pz      :     1.021710  p :     2.756606
      px      :     0.853093
      py      :     0.881803
      dz2     :     0.002699  d :     0.032303
      dxz     :     0.005514
      dyz     :     0.003535
      dx2y2   :     0.009119
      dxy     :     0.011435

 10 H s       :     0.969761  s :     0.969761
      pz      :     0.004874  p :     0.023661
      px      :     0.008411
      py      :     0.010377

 11 H s       :     0.969101  s :     0.969101
      pz      :     0.004741  p :     0.023602
      px      :     0.006699
      py      :     0.012162

 12 H s       :     1.004795  s :     1.004795
      pz      :     0.005689  p :     0.023048
      px      :     0.005206
      py      :     0.012153

 13 H s       :     0.994088  s :     0.994088
      pz      :     0.006145  p :     0.023738
      px      :     0.007288
      py      :     0.010305

 14 H s       :     0.839289  s :     0.839289
      pz      :     0.015071  p :     0.045049
      px      :     0.010484
      py      :     0.019495

 15 H s       :     0.818285  s :     0.818285
      pz      :     0.012613  p :     0.044979
      px      :     0.012237
      py      :     0.020128

 16 O s       :     3.682276  s :     3.682276
      pz      :     1.640751  p :     4.606089
      px      :     1.456054
      py      :     1.509284
      dz2     :     0.000660  d :     0.010487
      dxz     :     0.001665
      dyz     :     0.002485
      dx2y2   :     0.004626
      dxy     :     0.001051

 17 H s       :     0.773139  s :     0.773139
      pz      :     0.022110  p :     0.070451
      px      :     0.031457
      py      :     0.016884

 18 H s       :     0.788853  s :     0.788853
      pz      :     0.025933  p :     0.072234
      px      :     0.016428
      py      :     0.029873



                     *******************************
                     * LOEWDIN POPULATION ANALYSIS *
                     *******************************

----------------------
LOEWDIN ATOMIC CHARGES
----------------------
   0 O :   -0.216303
   1 O :   -0.215461
   2 N :    0.276513
   3 N :   -0.009965
   4 C :   -0.051647
   5 C :    0.035005
   6 C :    0.008934
   7 C :    0.007104
   8 C :   -0.056490
   9 C :   -0.056964
  10 H :    0.041928
  11 H :    0.042008
  12 H :    0.028403
  13 H :    0.027632
  14 H :    0.076076
  15 H :    0.082520
  16 O :   -0.145217
  17 H :    0.075677
  18 H :    0.050245

-------------------------------
LOEWDIN REDUCED ORBITAL CHARGES
-------------------------------
  0 O s       :     3.620215  s :     3.620215
      pz      :     1.434175  p :     4.553713
      px      :     1.682266
      py      :     1.437272
      dz2     :     0.005852  d :     0.042376
      dxz     :     0.004065
      dyz     :     0.008198
      dx2y2   :     0.008081
      dxy     :     0.016179

  1 O s       :     3.620290  s :     3.620290
      pz      :     1.435836  p :     4.552787
      px      :     1.749230
      py      :     1.367721
      dz2     :     0.005886  d :     0.042384
      dxz     :     0.002500
      dyz     :     0.009563
      dx2y2   :     0.011351
      dxy     :     0.013085

  2 N s       :     3.050003  s :     3.050003
      pz      :     1.128085  p :     3.430935
      px      :     1.178202
      py      :     1.124647
      dz2     :     0.018606  d :     0.242549
      dxz     :     0.017758
      dyz     :     0.047414
      dx2y2   :     0.088750
      dxy     :     0.070021

  3 N s       :     3.059829  s :     3.059829
      pz      :     1.581347  p :     3.906791
      px      :     1.152342
      py      :     1.173102
      dz2     :     0.002973  d :     0.043345
      dxz     :     0.006176
      dyz     :     0.006033
      dx2y2   :     0.013143
      dxy     :     0.015020

  4 C s       :     2.859514  s :     2.859514
      pz      :     1.080829  p :     3.070036
      px      :     0.898369
      py      :     1.090838
      dz2     :     0.011834  d :     0.122097
      dxz     :     0.011549
      dyz     :     0.014943
      dx2y2   :     0.050526
      dxy     :     0.033244

  5 C s       :     2.842446  s :     2.842446
      pz      :     0.938210  p :     2.979204
      px      :     0.957631
      py      :     1.083363
      dz2     :     0.011224  d :     0.143345
      dxz     :     0.031784
      dyz     :     0.014111
      dx2y2   :     0.047442
      dxy     :     0.038784

  6 C s       :     2.862805  s :     2.862805
      pz      :     0.934695  p :     3.037033
      px      :     1.061880
      py      :     1.040458
      dz2     :     0.006905  d :     0.091228
      dxz     :     0.014996
      dyz     :     0.009484
      dx2y2   :     0.027468
      dxy     :     0.032376

  7 C s       :     2.863038  s :     2.863038
      pz      :     0.935566  p :     3.038392
      px      :     1.063633
      py      :     1.039193
      dz2     :     0.006993  d :     0.091466
      dxz     :     0.016457
      dyz     :     0.007879
      dx2y2   :     0.026397
      dxy     :     0.033740

  8 C s       :     2.857999  s :     2.857999
      pz      :     1.032750  p :     3.111502
      px      :     1.051926
      py      :     1.026826
      dz2     :     0.006495  d :     0.086989
      dxz     :     0.012704
      dyz     :     0.006843
      dx2y2   :     0.027323
      dxy     :     0.033624

  9 C s       :     2.860771  s :     2.860771
      pz      :     1.023763  p :     3.109818
      px      :     1.053472
      py      :     1.032583
      dz2     :     0.006374  d :     0.086375
      dxz     :     0.012199
      dyz     :     0.007689
      dx2y2   :     0.027338
      dxy     :     0.032775

 10 H s       :     0.886578  s :     0.886578
      pz      :     0.014864  p :     0.071494
      px      :     0.025352
      py      :     0.031278

 11 H s       :     0.886505  s :     0.886505
      pz      :     0.014685  p :     0.071486
      px      :     0.020609
      py      :     0.036192

 12 H s       :     0.903597  s :     0.903597
      pz      :     0.017345  p :     0.068000
      px      :     0.015543
      py      :     0.035111

 13 H s       :     0.900667  s :     0.900667
      pz      :     0.018485  p :     0.071701
      px      :     0.021867
      py      :     0.031349

 14 H s       :     0.802385  s :     0.802385
      pz      :     0.047261  p :     0.121539
      px      :     0.025589
      py      :     0.048689

 15 H s       :     0.795124  s :     0.795124
      pz      :     0.038739  p :     0.122356
      px      :     0.030830
      py      :     0.052787

 16 O s       :     3.434460  s :     3.434460
      pz      :     1.627394  p :     4.691548
      px      :     1.504299
      py      :     1.559855
      dz2     :     0.000750  d :     0.019209
      dxz     :     0.003769
      dyz     :     0.005144
      dx2y2   :     0.008797
      dxy     :     0.000748

 17 H s       :     0.747720  s :     0.747720
      pz      :     0.055013  p :     0.176603
      px      :     0.082424
      py      :     0.039166

 18 H s       :     0.762612  s :     0.762612
      pz      :     0.063758  p :     0.187143
      px      :     0.035924
      py      :     0.087461



                      *****************************
                      * MAYER POPULATION ANALYSIS *
                      *****************************

  NA   - Mulliken gross atomic population
  ZA   - Total nuclear charge
  QA   - Mulliken gross atomic charge
  VA   - Mayer's total valence
  BVA  - Mayer's bonded valence
  FA   - Mayer's free valence

  ATOM       NA         ZA         QA         VA         BVA        FA
  0 O      8.2512     8.0000    -0.2512     1.9539     1.9539    -0.0000
  1 O      8.2504     8.0000    -0.2504     1.9545     1.9545    -0.0000
  2 N      6.7649     7.0000     0.2351     3.9834     3.9834    -0.0000
  3 N      7.0899     7.0000    -0.0899     3.2222     3.2222    -0.0000
  4 C      5.8268     6.0000     0.1732     3.7532     3.7532     0.0000
  5 C      5.9257     6.0000     0.0743     3.9835     3.9835    -0.0000
  6 C      6.0216     6.0000    -0.0216     3.8528     3.8528     0.0000
  7 C      6.0205     6.0000    -0.0205     3.8311     3.8311    -0.0000
  8 C      6.0190     6.0000    -0.0190     3.7676     3.7676     0.0000
  9 C      6.0470     6.0000    -0.0470     3.7894     3.7894    -0.0000
 10 H      0.9934     1.0000     0.0066     1.0183     1.0183     0.0000
 11 H      0.9927     1.0000     0.0073     1.0187     1.0187    -0.0000
 12 H      1.0278     1.0000    -0.0278     0.9890     0.9890     0.0000
 13 H      1.0178     1.0000    -0.0178     1.0383     1.0383    -0.0000
 14 H      0.8843     1.0000     0.1157     1.0006     1.0006    -0.0000
 15 H      0.8633     1.0000     0.1367     0.9952     0.9952     0.0000
 16 O      8.2989     8.0000    -0.2989     2.0716     2.0716     0.0000
 17 H      0.8436     1.0000     0.1564     1.0151     1.0151     0.0000
 18 H      0.8611     1.0000     0.1389     1.0690     1.0690     0.0000

  Mayer bond orders larger than 0.100000
B(  0-O ,  1-O ) :   0.2711 B(  0-O ,  2-N ) :   1.5382 B(  1-O ,  2-N ) :   1.5385 
B(  2-N ,  4-C ) :   0.8781 B(  3-N ,  5-C ) :   1.1971 B(  3-N , 14-H ) :   0.9459 
B(  3-N , 15-H ) :   0.9386 B(  4-C ,  6-C ) :   1.3588 B(  4-C ,  7-C ) :   1.3486 
B(  5-C ,  8-C ) :   1.3124 B(  5-C ,  9-C ) :   1.3107 B(  6-C ,  8-C ) :   1.3715 
B(  6-C , 10-H ) :   0.9819 B(  7-C ,  9-C ) :   1.3673 B(  7-C , 11-H ) :   0.9842 
B(  8-C , 12-H ) :   0.9872 B(  9-C , 13-H ) :   0.9823 B( 16-O , 17-H ) :   0.9991 
B( 16-O , 18-H ) :   0.9750 

-------
TIMINGS
-------

Total SCF time: 0 days 0 hours 0 min 6 sec 

Total time                  ....       6.630 sec
Sum of individual times     ....       6.464 sec  ( 97.5%)

SCF preparation             ....       0.808 sec  ( 12.2%)
Fock matrix formation       ....       4.859 sec  ( 73.3%)
  Startup                   ....       0.095 sec  (  2.0% of F)
  Split-RI-J                ....       0.476 sec  (  9.8% of F)
  Chain of spheres X        ....       2.465 sec  ( 50.7% of F)
  XC integration            ....       1.549 sec  ( 31.9% of F)
    XC Preparation          ....       0.000 sec  (  0.0% of XC)
    Basis function eval.    ....       0.200 sec  ( 12.9% of XC)
    Density eval.           ....       0.080 sec  (  5.2% of XC)
    XC-Functional eval.     ....       0.051 sec  (  3.3% of XC)
    XC-Potential eval.      ....       0.101 sec  (  6.6% of XC)
Diagonalization             ....       0.000 sec  (  0.0%)
Density matrix formation    ....       0.251 sec  (  3.8%)
Total Energy calculation    ....       0.112 sec  (  1.7%)
Population analysis         ....       0.022 sec  (  0.3%)
Orbital Transformation      ....       0.030 sec  (  0.5%)
Orbital Orthonormalization  ....       0.000 sec  (  0.0%)
DIIS solution               ....       0.210 sec  (  3.2%)
SOSCF solution              ....       0.172 sec  (  2.6%)
Finished LeanSCF after   6.7 sec

Maximum memory used throughout the entire LEANSCF-calculation: 20.1 MB


-------------------------------------------------------------------------------
                          DFT DISPERSION CORRECTION                            
                                                                               
                              DFTD3 V3.1  Rev 1                                
                          USING Becke-Johnson damping                          
-------------------------------------------------------------------------------
The B3LYP functional is recognized
Active option DFTDOPT                   ...         4   

molecular C6(AA) [au] = 3865.982308 


            DFT-D V3
 parameters
 s6 scaling factor         :     1.0000 
 a1 scaling factor         :     0.3981 
 s8 scaling factor         :     1.9889 
 a2 scaling factor         :     4.4211 
 ad hoc parameters k1-k3   :    16.0000     1.3333    -4.0000 

 Edisp/kcal,au: -20.631464504435  -0.032878327988 
 E6   /kcal   :  -9.766381659 
 E8   /kcal   : -10.865082845 
 % E8         :  52.662683460 

-------------------------   ----------------
Dispersion correction           -0.032878328
-------------------------   ----------------


-------------------------   --------------------
FINAL SINGLE POINT ENERGY      -567.850894209177
-------------------------   --------------------

--------------------------------------------------------------------------
By default, for Open MPI 4.0 and later, infiniband ports on a device
are not used by default.  The intent is to use UCX for these devices.
You can override this policy by setting the btl_openib_allow_ib MCA parameter
to true.

  Local host:              psid10
  Local adapter:           mlx4_0
  Local port:              1

--------------------------------------------------------------------------
--------------------------------------------------------------------------
WARNING: There was an error initializing an OpenFabrics device.

  Local host:   psid10
  Local device: mlx4_0
--------------------------------------------------------------------------


           ************************************************************
           *        Program running with 28 parallel MPI-processes    *
           *              working on a common directory               *
           ************************************************************
------------------------------------------------------------------------------
                         ORCA SCF GRADIENT CALCULATION
------------------------------------------------------------------------------

Nuc. rep. gradient        (SHARK) ... done (  0.0 sec)
HCore & Overlap gradient  (SHARK) ... done (  0.0 sec)
Split-RIJ-J gradient      (SHARK) ... done (  0.1 sec)
COSX-gradient                     ... done (  1.1 sec)
XC gradient                       ... done (  0.2 sec)
Dispersion correction             ... done (  0.0 sec)

-------------------
DISPERSION GRADIENT
-------------------

   1   O   :    0.000489942    0.000129072    0.000056359
   2   O   :    0.000466024   -0.000206227   -0.000044520
   3   N   :    0.000594048   -0.000047036    0.000008544
   4   N   :   -0.000598014    0.000148552    0.000171835
   5   C   :    0.000459840   -0.000027194    0.000024918
   6   C   :   -0.000350174    0.000149508    0.000236487
[...]
    11. B(H  10,C   6)                1.0897  0.000025 -0.0000    1.0897   
    12. B(H  11,C   7)                1.0897 -0.000028 -0.0000    1.0897   
    13. B(H  12,C   8)                1.0933  0.000034 -0.0000    1.0933   
    14. B(H  13,C   9)                1.0913  0.000068  0.0016    1.0929   
    15. B(H  14,N   3)                1.0099  0.000060  0.0000    1.0099   
    16. B(H  15,N   3)                1.0190 -0.000164  0.0011    1.0201   
    17. B(O  16,H  15)                1.9138 -0.000169  0.0046    1.9184   
    18. B(O  16,H  13)                2.6632  0.000053 -0.0201    2.6431   
    19. B(H  17,H  13)                2.7935  0.000172 -0.0492    2.7443   
    20. B(H  17,O  16)                0.9676  0.000401 -0.0015    0.9661   
    21. B(H  18,C   5)                3.9479  0.000004 -0.0097    3.9383   
    22. B(H  18,H  13)                2.7722  0.000112 -0.0160    2.7562   
    23. B(H  18,H  15)                2.4911  0.000080  0.0034    2.4945   
    24. B(H  18,N   3)                3.4002 -0.000073  0.0010    3.4013   
    25. B(H  18,O  16)                0.9682  0.000370  0.0011    0.9693   
    26. A(O   1,N   2,C   4)          117.97  0.000349   -0.01    117.96   
    27. A(O   0,N   2,C   4)          117.82 -0.000313   -0.00    117.82   
    28. A(O   0,N   2,O   1)          124.21 -0.000036    0.01    124.22   
    29. A(C   5,N   3,H  14)          119.98 -0.000137    0.02    120.01   
    30. A(H  14,N   3,H  18)          128.16  0.000057    0.07    128.23   
    31. A(H  15,N   3,H  18)           22.67  0.000012    0.10     22.77   
    32. A(C   5,N   3,H  15)          119.49  0.000015   -0.21    119.28   
    33. A(H  14,N   3,H  15)          119.52  0.000122   -0.06    119.46   
    34. A(C   5,N   3,H  18)          103.64  0.000042   -0.61    103.04   
    35. A(C   6,C   4,C   7)          120.62 -0.000042    0.06    120.69   
    36. A(N   2,C   4,C   7)          119.61 -0.000118   -0.04    119.57   
    37. A(N   2,C   4,C   6)          119.77  0.000161   -0.03    119.74   
    38. A(C   8,C   5,H  18)          161.35  0.000008   -0.42    160.93   
    39. A(C   9,C   5,H  18)           66.80  0.000017   -0.23     66.57   
    40. A(N   3,C   5,C   9)          120.19  0.000002   -0.06    120.13   
    41. A(C   8,C   5,C   9)          117.99 -0.000067    0.09    118.08   
    42. A(N   3,C   5,H  18)           56.82 -0.000034    0.44     57.26   
    43. A(N   3,C   5,C   8)          121.82  0.000066   -0.03    121.80   
    44. A(C   8,C   6,H  10)          121.11 -0.000554    0.07    121.18   
    45. A(C   4,C   6,H  10)          119.23  0.000683   -0.10    119.13   
    46. A(C   4,C   6,C   8)          119.66 -0.000129    0.03    119.69   
    47. A(C   4,C   7,C   9)          119.78  0.000222   -0.10    119.68   
    48. A(C   9,C   7,H  11)          121.56  0.000071    0.00    121.56   
    49. A(C   4,C   7,H  11)          118.66 -0.000292    0.10    118.76   
    50. A(C   6,C   8,H  12)          119.67 -0.000256    0.02    119.69   
    51. A(C   5,C   8,C   6)          121.05  0.000197   -0.10    120.94   
    52. A(C   5,C   8,H  12)          119.29  0.000059    0.08    119.37   
    53. A(C   5,C   9,C   7)          120.90 -0.000181    0.02    120.92   
    54. A(C   7,C   9,H  13)          120.59  0.000158    0.12    120.71   
    55. A(C   5,C   9,H  13)          118.50  0.000022   -0.14    118.36   
    56. A(O  16,H  13,H  18)           20.39  0.000067    0.15     20.54   
    57. A(H  17,H  13,H  18)           31.97  0.000105    0.32     32.29   
    58. A(C   9,H  13,H  18)          135.41 -0.000110    0.05    135.46   
    59. A(O  16,H  13,H  17)           20.25  0.000069    0.31     20.56   
    60. A(C   9,H  13,O  16)          132.16 -0.000134    0.04    132.20   
    61. A(C   9,H  13,H  17)          147.48 -0.000088    0.13    147.60   
    62. A(N   3,H  15,H  18)          148.26  0.000000   -0.05    148.21   
    63. A(N   3,H  15,O  16)          166.89  0.000075   -0.47    166.42   
    64. A(O  16,H  15,H  18)           20.51  0.000073   -0.12     20.39   
    65. A(H  13,O  16,H  15)           60.04  0.000040    0.25     60.29   
    66. A(H  15,O  16,H  18)          115.67 -0.000023   -0.11    115.56   
    67. A(H  15,O  16,H  17)          124.19  0.000041   -1.25    122.94   
    68. A(H  17,O  16,H  18)          104.70 -0.000003   -0.30    104.40   
    69. A(H  13,O  16,H  18)           86.16 -0.000024    0.16     86.32   
    70. A(H  13,O  16,H  17)           87.49  0.000000   -1.83     85.67   
    71. A(H  13,H  17,O  16)           72.26 -0.000069    1.52     73.78   
    72. A(H  15,H  18,O  16)           43.82 -0.000051    0.22     44.05   
    73. A(N   3,H  18,O  16)           52.60 -0.000059   -0.01     52.59   
    74. A(C   5,H  18,H  13)           31.91  0.000038    0.06     31.97   
    75. A(C   5,H  18,H  15)           26.87 -0.000027    0.21     27.08   
    76. A(N   3,H  18,C   5)           19.54 -0.000008    0.17     19.70   
    77. A(C   5,H  18,O  16)           64.80 -0.000072   -0.24     64.55   
    78. A(H  13,H  18,H  15)           53.45  0.000011    0.07     53.52   
    79. A(N   3,H  18,H  13)           49.23  0.000032    0.04     49.27   
    80. A(H  13,H  18,O  16)           73.44 -0.000042   -0.31     73.14   
    81. A(N   3,H  18,H  15)            9.07 -0.000012   -0.06      9.01   
    82. D(C   7,C   4,N   2,O   0)    179.95  0.000091    0.40    180.35   
    83. D(C   6,C   4,N   2,O   1)   -179.95 -0.000076    0.47   -179.48   
    84. D(C   6,C   4,N   2,O   0)      0.10  0.000090    0.43      0.53   
    85. D(C   7,C   4,N   2,O   1)     -0.10 -0.000075    0.44      0.34   
    86. D(C   9,C   5,N   3,H  15)     -4.81  0.000104   -0.93     -5.73   
    87. D(C   8,C   5,N   3,H  18)    157.90 -0.000005   -0.50    157.40   
    88. D(C   8,C   5,N   3,H  15)    175.43  0.000045   -0.81    174.62   
    89. D(C   9,C   5,N   3,H  18)    -22.33  0.000054   -0.62    -22.95   
    90. D(C   9,C   5,N   3,H  14)   -173.27  0.000086    0.11   -173.16   
    91. D(C   8,C   5,N   3,H  14)      6.96  0.000027    0.23      7.19   
    92. D(H  10,C   6,C   4,C   7)    179.96 -0.000018    0.12    180.07   
    93. D(H  10,C   6,C   4,N   2)     -0.20 -0.000017    0.09     -0.11   
    94. D(C   8,C   6,C   4,C   7)     -0.08 -0.000057    0.09      0.01   
    95. D(C   8,C   6,C   4,N   2)    179.77 -0.000056    0.06    179.83   
    96. D(C   9,C   7,C   4,N   2)   -179.86 -0.000011   -0.08   -179.94   
    97. D(H  11,C   7,C   4,N   2)      0.13  0.000047   -0.12      0.01   
    98. D(C   9,C   7,C   4,C   6)     -0.01 -0.000009   -0.10     -0.12   
    99. D(H  11,C   7,C   4,C   6)    179.97  0.000049   -0.14    179.83   
   100. D(H  12,C   8,C   6,C   4)    179.92  0.000031    0.06    179.98   
   101. D(C   5,C   8,C   6,H  10)    179.91 -0.000009    0.10    180.01   
   102. D(C   5,C   8,C   6,C   4)     -0.05  0.000031    0.13      0.07   
   103. D(H  12,C   8,C   5,N   3)      0.06  0.000117   -0.36     -0.29   
   104. D(H  12,C   8,C   5,C   9)   -179.71  0.000059   -0.25   -179.95   
   105. D(C   6,C   8,C   5,C   9)      0.27  0.000059   -0.31     -0.04   
   106. D(H  12,C   8,C   6,H  10)     -0.11 -0.000009    0.03     -0.08   
   107. D(C   6,C   8,C   5,N   3)   -179.96  0.000117   -0.43   -180.38   
   108. D(C   6,C   8,C   5,H  18)   -100.06  0.000202    0.83    -99.23   
   109. D(H  13,C   9,C   5,N   3)      0.50 -0.000127    0.39      0.89   
   110. D(C   7,C   9,C   5,H  18)    159.61 -0.000123   -0.24    159.38   
   111. D(C   7,C   9,C   5,C   8)     -0.37 -0.000125    0.30     -0.07   
   112. D(C   7,C   9,C   5,N   3)    179.86 -0.000182    0.41    180.27   
   113. D(H  13,C   9,C   7,H  11)     -0.40 -0.000015   -0.03     -0.43   
   114. D(H  13,C   9,C   7,C   4)    179.59  0.000045   -0.08    179.51   
   115. D(C   5,C   9,C   7,H  11)   -179.75  0.000042   -0.05   -179.80   
   116. D(C   5,C   9,C   7,C   4)      0.24  0.000102   -0.09      0.15   
   117. D(H  13,C   9,C   5,C   8)   -179.73 -0.000070    0.28   -179.44   
   118. D(O  16,H  13,C   9,C   5)     11.01  0.000020    0.43     11.44   
   119. D(O  16,H  13,C   9,C   7)   -168.36  0.000077    0.41   -167.94   
   120. D(H  18,H  13,C   9,C   5)     39.04  0.000051    0.67     39.71   
   121. D(H  17,H  13,C   9,C   7)    170.74  0.000043   -0.39    170.35   
   122. D(H  17,H  13,C   9,C   5)     -9.90 -0.000014   -0.37    -10.27   
   123. D(O  16,H  15,N   3,C   5)    -24.64 -0.000032    2.92    -21.73   
   124. D(H  18,H  15,N   3,C   5)    -49.40 -0.000139    1.35    -48.04   
   125. D(H  18,H  15,N   3,H  14)    119.12 -0.000151    0.25    119.37   
   126. D(O  16,H  15,N   3,H  18)     24.75  0.000107    1.57     26.32   
   127. D(O  16,H  15,N   3,H  14)    143.87 -0.000044    1.81    145.68   
   128. D(H  13,O  16,H  15,H  18)     68.73  0.000014    0.94     69.67   
   129. D(H  13,O  16,H  15,N   3)     29.77 -0.000014   -1.97     27.80   
   130. D(H  17,O  16,H  15,H  18)    131.82  0.000016   -1.03    130.79   
   131. D(H  17,O  16,H  15,N   3)     92.86 -0.000012   -3.94     88.92   
   132. D(H  15,O  16,H  13,H  17)    132.41  0.000029    0.68    133.09   
   133. D(H  15,O  16,H  13,C   9)    -13.92  0.000057   -0.43    -14.35   
   134. D(H  18,O  16,H  13,H  17)   -104.92  0.000001    0.14   -104.78   
   135. D(H  18,O  16,H  15,N   3)    -38.96 -0.000028   -2.91    -41.87   
   136. D(H  18,O  16,H  13,C   9)    108.75  0.000028   -0.98    107.78   
   137. D(H  17,O  16,H  13,H  18)    104.92 -0.000001   -0.14    104.78   
   138. D(H  17,O  16,H  13,C   9)   -146.33  0.000027   -1.12   -147.44   
   139. D(H  13,H  17,O  16,H  15)    -50.65 -0.000029    0.82    -49.83   
   140. D(H  13,H  17,O  16,H  18)     85.37 -0.000025   -0.27     85.10   
   141. D(O  16,H  17,H  13,H  18)    -39.50 -0.000010    0.07    -39.43   
   142. D(O  16,H  17,H  13,C   9)     49.86  0.000028   -0.32     49.54   
   143. D(O  16,H  18,N   3,H  14)    -88.86 -0.000154   -1.47    -90.33   
   144. D(O  16,H  18,N   3,C   5)    123.49 -0.000040   -0.60    122.89   
   145. D(H  13,H  18,O  16,H  17)    -86.39  0.000006    1.81    -84.58   
   146. D(H  15,H  18,O  16,H  13)    -54.01 -0.000042   -0.31    -54.32   
   147. D(H  15,H  18,O  16,H  17)   -140.41 -0.000035    1.50   -138.91   
   148. D(N   3,H  18,O  16,H  13)    -50.93 -0.000059    0.26    -50.67   
   149. D(N   3,H  18,O  16,H  17)   -137.32 -0.000052    2.07   -135.25   
   150. D(C   5,H  18,H  15,O  16)   -134.07  0.000007    0.91   -133.16   
   151. D(H  13,H  18,H  15,O  16)   -105.08  0.000036    1.09   -104.00   
   152. D(H  13,H  18,H  15,N   3)     59.19  0.000117   -0.42     58.77   
   153. D(N   3,H  18,H  15,O  16)   -164.27 -0.000081    1.51   -162.76   
   154. D(O  16,H  18,H  15,N   3)    164.27  0.000081   -1.51    162.76   
   155. D(H  15,H  18,H  13,H  17)     83.40 -0.000014    0.92     84.32   
   156. D(H  15,H  18,H  13,C   9)    -46.63  0.000019   -0.72    -47.35   
   157. D(N   3,H  18,H  13,O  16)     54.53 -0.000036    0.49     55.01   
   158. D(N   3,H  18,H  13,H  17)     93.70 -0.000020    0.78     94.48   
   159. D(N   3,H  18,H  13,C   9)    -36.33  0.000013   -0.86    -37.19   
   160. D(O  16,H  18,H  13,H  17)     39.17  0.000016    0.29     39.46   
   161. D(O  16,H  18,H  13,C   9)    -90.86  0.000049   -1.35    -92.21   
   162. D(H  15,H  18,C   5,C   8)   -105.60 -0.000129   -0.97   -106.56   
   163. D(H  15,H  18,C   5,N   3)    -13.72 -0.000024    0.50    -13.22   
   164. D(N   3,H  18,C   5,C   9)    159.06  0.000053   -0.61    158.45   
   165. D(N   3,H  18,C   5,C   8)    -91.87 -0.000105   -1.47    -93.35   
   166. D(O  16,H  18,C   5,C   9)    111.99  0.000037   -1.13    110.86   
   167. D(C   5,H  18,H  15,N   3)     30.20  0.000088   -0.60     29.60   
   168. D(O  16,H  18,C   5,C   8)   -138.95 -0.000121   -1.99   -140.94   
   169. D(O  16,H  18,C   5,N   3)    -47.08 -0.000016   -0.52    -47.60   
   170. D(H  13,H  18,N   3,H  14)    170.44 -0.000116   -0.30    170.14   
   171. D(N   3,H  18,O  16,H  15)      3.08 -0.000017    0.57      3.66   
   172. D(H  13,H  18,N   3,C   5)     22.79 -0.000002    0.58     23.37   
   173. D(H  15,H  18,N   3,H  14)    -75.20 -0.000226    0.22    -74.97   
   174. D(H  15,H  18,N   3,C   5)    137.15 -0.000112    1.10    138.25   
   175. D(H  13,H  18,O  16,H  15)     54.01  0.000042    0.31     54.32   
   176. D(O  16,H  18,N   3,H  15)    -13.67  0.000072   -1.70    -15.36   
    ----------------------------------------------------------------------------

Geometry step timings:
Preparation and reading OPT file:      0.002 s (14.184 %)
Internal coordinates            :      0.000 s ( 0.305 %)
B/P matrices and projection     :      0.002 s (13.969 %)
Hessian update/contruction      :      0.004 s (26.271 %)
Making the step                 :      0.004 s (27.160 %)
Converting the step to Cartesian:      0.000 s ( 1.240 %)
Storing new data                :      0.000 s ( 3.207 %)
Checking convergence            :      0.000 s ( 0.130 %)
Final printing                  :      0.002 s (13.509 %)
Total time                      :      0.015 s
--------------------------------------------------------------------------
By default, for Open MPI 4.0 and later, infiniband ports on a device
are not used by default.  The intent is to use UCX for these devices.
You can override this policy by setting the btl_openib_allow_ib MCA parameter
to true.

  Local host:              psid10
  Local adapter:           mlx4_0
  Local port:              1

--------------------------------------------------------------------------
--------------------------------------------------------------------------
WARNING: There was an error initializing an OpenFabrics device.

  Local host:   psid10
  Local device: mlx4_0
--------------------------------------------------------------------------
[psid10:244549] 27 more processes have sent help message help-mpi-btl-openib.txt / ib port not selected
[psid10:244549] Set MCA parameter "orte_base_help_aggregate" to 0 to see all help / error messages
[psid10:244549] 27 more processes have sent help message help-mpi-btl-openib.txt / error in device init

Time for energy+gradient        :      9.878 s
Time for complete geometry iter :     11.095 s




    ----------------------------------------------------------------------------
                                  WARNING !!!
       The optimization did not converge but reached the maximum number of
       optimization cycles.
       Please check your results very carefully.
    ----------------------------------------------------------------------------



--------------------------------
SUGGESTED CITATIONS FOR THIS RUN
--------------------------------

Below you find a list of papers that are relevant to this ORCA run
We neither can nor want to force you to cite these papers, but we appreciate if you do
You receive ORCA, which is the product of decades of hard work by many enthusiastic individuals, for free
The only thing we kindly ask in return is that you cite our papers,
We deeply appreciate it, if you show your appreciation for ORCA by not just citing the generic ORCA reference.

Please note that relegating all ORCA citations to the supporting information does *not* help us.
SI sections are not indexed - citations you put there will not count into any citation statistics
But we need these citations in order to attract the funding resources that allow us to do what we are doing

Therefore, if you are a happy ORCA user, please consider citing a few of the papers listed below in the main body of your paper

In addition to the list printed below, the program has created the file 4nitroaniline_water_2_OPT.bibtex that contains the list in bibtex format
You can import this file easily into all common literature databanks and citation aid programs


List of essential papers. We consider these as the minimum necessary citations

  1. Neese,F.
     Software update: the ORCA program system, version 5.0
     WIRES Comput. Molec. Sci., 2022 12(1)e1606
     doi.org/10.1002/wcms.1606

List of papers to cite with high priority. The work reported in these papers was absolutely
necessary for this run to complete.
Our perspective: the developers of density functionals and basis sets usually get cited in chemistry papers
Good! But without the algorithms to do something with them, the functionals or basis sets would not do anything.
Hence, in our opinion, the algorithm design and method developments papers are equally worthy of getting cited

  1. Neese,F.
     An improvement of the resolution of the identity approximation for the formation of the Coulomb matrix
     J. Comp. Chem., 2003 24(14)1740-1747
     doi.org/10.1002/jcc.10318
  2. Neese,F.; Wennmohs,F.; Hansen,A.; Becker,U.
     Efficient, approximate and parallel Hartree-Fock and hybrid DFT calculations. A 'chain-of-spheres' algorithm for the Hartree-Fock exchange
     Chem. Phys., 2009 356(1-3)98-109
     doi.org/10.1016/j.chemphys.2008.10.036
  3. Helmich-Paris,B.; de Souza,B.; Neese,F.; Izsák,R.
     An improved chain of spheres for exchange algorithm
     J. Chem. Phys., 2021 155 104109
     doi.org/doi: 10.1063/5.0058766.
  4. Neese,F.
     The SHARK Integral Generation and Digestion System
     J. Comp. Chem., 2022  1-16
     doi.org/10.1002/jcc.26942
  5. Grimme,S.; Antony,J.; Ehrlich,S.; Krieg,H.
     A consistent and accurate ab initio parametrization of density functional dispersion correction (DFT-D) for the 94 elements H-Pu
     J. Chem. Phys., 2010 132 154104
     doi.org/10.1063/1.3382344
  6. Grimme,S.; Ehrlich,S.; Goerigk,L.
     Effect of the damping function in dispersion corrected density functional theory
     J. Comput. Chem., 2011 32(7)1456-1465
     doi.org/10.1002/jcc.21759

List of suggested additional citations. These are papers that are important in the 'surrounding' of 
of this run, or papers that preceded the highly important papers. If you like your results we are grateful for a citation.

  1. Izsak,R.; Neese,F.
     An overlap fitted chain of spheres exchange method
     J. Chem. Phys., 2011 135 144105
     doi.org/10.1063/1.3646921
  2. Izsak,R.; Hansen,A.; Neese,F.
     The resolution of identity and chain of spheres approximations for the LPNO-CCSD singles Fock term
     Molec. Phys., 2012 110 2413-2417
     doi.org/10.1080/00268976.2012.687466
  3. Neese,F.
     The ORCA program system
     WIRES Comput. Molec. Sci., 2012 2(1)73-78
     doi.org/10.1002/wcms.81
  4. Izsak,R.; Neese,F.; Klopper,W.
     Robust fitting techniques in the chain of spheres approximation to the Fock exchange: The role of the complementary space
     J. Chem. Phys., 2013 139 
     doi.org/10.1063/1.4819264
  5. Neese,F.
     Software update: the ORCA program system, version 4.0
     WIRES Comput. Molec. Sci., 2018 8(1)1-6
     doi.org/10.1002/wcms.1327
  6. Neese,F.; Wennmohs,F.; Becker,U.; Riplinger,C.
     The ORCA quantum chemistry program package
     J. Chem. Phys., 2020 152 Art. No. L224108
     doi.org/10.1063/5.0004608

List of optional additional citations

  1. Neese,F.
     Approximate second-order SCF convergence for spin unrestricted wavefunctions
     Chem. Phys. Lett., 2000 325(1-3)93-98
     doi.org/10.1016/s0009-2614(00)00662-x

Timings for individual modules:

Sum of individual times          ...      561.452 sec (=   9.358 min)
Startup calculation              ...      101.888 sec (=   1.698 min)  18.1 %
SCF iterations                   ...      320.163 sec (=   5.336 min)  57.0 %
SCF Gradient evaluation          ...      138.550 sec (=   2.309 min)  24.7 %
Geometry relaxation              ...        0.851 sec (=   0.014 min)   0.2 %
                             ****ORCA TERMINATED NORMALLY****
TOTAL RUN TIME: 0 days 0 hours 10 minutes 37 seconds 509 msec
