
                                 *****************
                                 * O   R   C   A *
                                 *****************

                                            #,                                       
                                            ###                                      
                                            ####                                     
                                            #####                                    
                                            ######                                   
                                           ########,                                 
                                     ,,################,,,,,                         
                               ,,#################################,,                 
                          ,,##########################################,,             
                       ,#########################################, ''#####,          
                    ,#############################################,,   '####,        
                  ,##################################################,,,,####,       
                ,###########''''           ''''###############################       
              ,#####''   ,,,,##########,,,,          '''####'''          '####       
            ,##' ,,,,###########################,,,                        '##       
           ' ,,###''''                  '''############,,,                           
         ,,##''                                '''############,,,,        ,,,,,,###''
      ,#''                                            '''#######################'''  
     '                                                          ''''####''''         
             ,#######,   #######,   ,#######,      ##                                
            ,#'     '#,  ##    ##  ,#'     '#,    #''#        ,####,   ,####,        
            ##       ##  ##   ,#'  ##            #'  '#       #'       #'  '#        
            ##       ##  #######   ##           ,######,      #####,   #    #        
            '#,     ,#'  ##    ##  '#,     ,#' ,#      #,     #,   #   #,  ,#        
             '#######'   ##     ##  '#######'  #'      '#     '####' # '####'        



                #########################################################
                #                        -***-                          #
                #          Department of theory and spectroscopy        #
                #                                                       #
                #                      Frank Neese                      #
                #                                                       #
                #     Directorship, Architecture, Infrastructure        #
                #                    SHARK, DRIVERS                     #
                #        Core code/Algorithms in most modules           #
                #                                                       #
                #        Max Planck Institute fuer Kohlenforschung      #
                #                Kaiser Wilhelm Platz 1                 #
                #                 D-45470 Muelheim/Ruhr                 #
                #                      Germany                          #
                #                                                       #
                #                  All rights reserved                  #
                #                        -***-                          #
                #########################################################


                         Program Version 6.0.1  -  RELEASE   -


 With contributions from (in alphabetic order):
[Max-Planck-Institut fuer Kohlenforschung]                               
  Daniel Aravena         : Magnetic Suceptibility                        
  Michael Atanasov       : Ab Initio Ligand Field Theory (pilot matlab implementation)
  Alexander A. Auer      : GIAO ZORA, VPT2 properties, NMR spectrum      
  Ute Becker             : All parallelization in ORCA, NUMFREQ, NUMCALC 
  Giovanni Bistoni       : ED, misc. LED, open-shell LED, HFLD           
  Martin Brehm           : Molecular dynamics                            
  Dmytro Bykov           : pre 5.0 version of the SCF Hessian            
  Marcos Casanova-Páez   : Triplet and SCS-CIS(D). UHF-(DLPNO)-IP/EA/STEOM-CCSD. UHF-CVS-IP/STEOM-CCSD   
  Vijay G. Chilkuri      : MRCI spin determinant printing, contributions to CSF-ICE 
  Pauline Colinet        : FMM embedding                                 
  Dipayan Datta          : RHF DLPNO-CCSD density                        
  Achintya Kumar Dutta   : EOM-CC, STEOM-CC                              
  Nicolas Foglia         : Exact transition moments, OPA infrastructure, MCD improvements    
  Dmitry Ganyushin       : Spin-Orbit,Spin-Spin,Magnetic field MRCI      
  Miquel Garcia-Rates    : C-PCM and meta-GGA Hessian, CCSD/C-PCM, Gaussian charge scheme 
  Tiago L. C. Gouveia    : GS-ROHF, GS-ROCIS                             
  Yang Guo               : DLPNO-NEVPT2, F12-NEVPT2, CIM, IAO-localization        
  Andreas Hansen         : Spin unrestricted coupled pair/coupled cluster methods 
  Ingolf Harden          : AUTO-CI MPn and infrastructure                
  Benjamin Helmich-Paris : MC-RPA, TRAH-(SCF,CASSCF), AVAS, COSX integrals, SCF dyn. polar. 
  Lee Huntington         : MR-EOM, pCC                                   
  Robert Izsak           : Overlap fitted RIJCOSX, COSX-SCS-MP3, EOM     
  Riya Kayal             : Wick's Theorem for AUTO-CI, AUTO-CI UHF-CCSDT 
  Emily Kempfer          : AUTO-CI, RHF CISDT and CCSDT                  
  Christian Kollmar      : KDIIS, OOCD, Brueckner-CCSD(T), CCSD density, CASPT2, CASPT2-K, improved NEVPT2 
  Axel Koslowski         : Symmetry handling                             
  Simone Kossmann        : meta-GGA functionals, TD-DFT gradient, OOMP2, (MP2 Hessian; deprecated post 5.0) 
  Lucas Lang             : DCDCAS                                        
  Marvin Lechner         : AUTO-CI (C++ implementation), FIC-MRCC        
  Spencer Leger          : CASSCF response                               
  Dagmar Lenk            : GEPOL surface, SMD, ORCA-2-JSON               
  Dimitrios Liakos       : Extrapolation schemes; Compound Job, initial MDCI parallelization 
  Dimitrios Manganas     : Further ROCIS development; embedding schemes. LFT, Crystal Embedding 
  Dimitrios Pantazis     : SARC Basis sets                               
  Anastasios Papadopoulos: AUTO-CI, single reference methods and gradients 
  Taras Petrenko         : pre 6.0 DFT Hessian and TD-DFT gradient, (ASA, deprecated), ECA, 1-Electron XAS/XES, NRVS 
  Peter Pinski           : DLPNO-MP2, DLPNO-MP2 Gradient                 
  Christoph Reimann      : Effective Core Potentials                     
  Marius Retegan         : Local ZFS, SOC                                
  Christoph Riplinger    : Optimizer, TS searches, QM/MM, DLPNO-CCSD(T), (RO)-DLPNO pert. Triples 
  Michael Roemelt        : Original ROCIS implementation                 
  Masaaki Saitow         : Open-shell DLPNO-CCSD energy and density      
  Barbara Sandhoefer     : DKH picture change effects                    
  Kantharuban Sivalingam : CASSCF convergence/infrastructure, NEVPT2 and variants, FIC-MRCI 
  Bernardo de Souza      : ESD, SOC TD-DFT                               
  Georgi L. Stoychev     : AutoAux, RI-MP2 NMR, DLPNO-MP2 response, X2C  
  Van Anh Tran           : RI-MP2 g-tensors                              
  Willem Van den Heuvel  : Paramagnetic NMR                              
  Zikuan Wang            : NOTCH, Electric field optimization            
  Frank Wennmohs         : Technical directorship and infrastructure     
  Hang Xu                : AUTO-CI-Response properties                   
                                                                         
[FACCTs GmbH]                                                            
  Markus Bursch, Miquel Garcia-Rates, Christoph Riplinger, Bernardo de Souza, Georgi L. Stoychev 
                                                                 
  APM, Basis sets (HGBS, AHGBS, def-TZVP (Ac-Lr), def2-XVPD (La-Lu)), CI-OPT, improved COSX, DLPNO-Multilevel,           
  DOCKER, DRACO, updates on ESD, GOAT, IRC, LR-CPCM, MBIS, meta-GGA TD-DFT gradient, ML-optimized integration grids, 
  MM, NACMEs, nearIR, NEB, NEB-TS, NL-DFT gradient (VV10), 2- and 3-layer-ONIOM, interface openCOSMO-RS, QMMM,   
  Crystal-QMMM, SF, symmetry and pop. for TD-DFT, r2SCAN hybrids, SOLVATOR                                   
                                                                         
[Other institutions]                                                     
  V. Asgeirsson          : NEB                                           
  Christoph Bannwarth    : sTDA-DFT, sTD-DFT, PBEh-3c, B97-3c, D3        
  Sebastian Ehlert       : rSCAN, r2SCAN, r2SCAN-3c, D4, dhf basis sets  
  Marvin Friede          : D4 for Fr, Ra, Ac-Lr                          
  Lars Goerigk           : TD-DFT with DH, B97 family of functionals     
  Stefan Grimme          : VdW corrections, initial TS optimization, DFT functionals, gCP, sTDA/sTD-DF 
  Waldemar Hujo          : DFT-NL                                        
  H. Jonsson             : NEB                                           
  Holger Kruse           : gCP                                           
  Marcel Mueller         : wB97X-3c, vDZP basis set                      
  Hagen Neugebauer       : wr2SCAN                                       
  Tobias Risthaus        : range-separated hybrid DFT                    
  Lukas Wittmann         : regularized MP2, r2SCAN double-hybrids, wr2SCAN        
                                                                         
We gratefully acknowledge several colleagues who have allowed us to      
interface, adapt or use parts of their codes:                            
  Ed Valeev, F. Pavosevic, A. Kumar             : LibInt (2-el integral package), F12 methods 
  Garnet Chan, S. Sharma, J. Yang, R. Olivares  : DMRG                   
  Ulf Ekstrom                                   : XCFun DFT Library      
  Mihaly Kallay                                 : mrcc  (arbitrary order and MRCC methods)
  Frank Weinhold                                : gennbo (NPA and NBO analysis)           
  Simon Mueller                                 : openCOSMO-RS                            
  Christopher J. Cramer and Donald G. Truhlar   : smd solvation model                     
  S Lehtola, MJT Oliveira, MAL Marques          : LibXC Library                           
  Liviu Ungur et al                             : ANISO software                          


 Your calculation uses the libint2 library for the computation of 2-el integrals
 For citations please refer to: http://libint.valeyev.net

 Your ORCA version has been built with support for libXC version: 6.2.2
 For citations please refer to: https://libxc.gitlab.io

 This ORCA versions uses:
   CBLAS   interface :  Fast vector & matrix operations
   LAPACKE interface :  Fast linear algebra routines
   SCALAPACK package :  Parallel linear algebra routines
   Shared memory     :  Shared parallel matrices
   BLAS/LAPACK       :  OpenBLAS 0.3.27  USE64BITINT DYNAMIC_ARCH NO_AFFINITY SkylakeX SINGLE_THREADED
        Core in use  :  SkylakeX
   Copyright (c) 2011-2014, The OpenBLAS Project


NOTE: MaxCore=4000 MB was set to SCF,MP2,MDCI,CIPSI,MRCI and CIS
      => If you want to overwrite this, your respective input block should be placed after the MaxCore statement
Your calculation utilizes the atom-pairwise dispersion correction
with the Becke-Johnson damping scheme (D3BJ)


Warning: RI is on but no J-basis has been assigned. Assigning Def2/J (nothing to worry about!)
================================================================================

----- Orbital basis set information -----
Your calculation utilizes the basis: def2-SVP
   F. Weigend and R. Ahlrichs, Phys. Chem. Chem. Phys. 7, 3297 (2005).

----- AuxJ basis set information -----
Your calculation utilizes the auxiliary basis: def2/J
   F. Weigend, Phys. Chem. Chem. Phys. 8, 1057 (2006).

================================================================================
                                        WARNINGS
                       Please study these warnings very carefully!
================================================================================

WARNING: Old DensityContainer found on disk!
         Will remove this file - 
         If you want to keep old densities, please start your calculation with a different basename. 


WARNING: Geometry Optimization
  ===> : Switching off AutoStart
         For restart on a previous wavefunction, please use MOREAD

================================================================================
                                       INPUT FILE
================================================================================
NAME = 4nitroaniline_water_2_OPT.inp
|  1> ! B3LYP def2-SVP OPT TightSCF D3BJ
|  2> 
|  3> 
|  4> %maxcore 4000
|  5> 
|  6> %pal
|  7> nprocs 28
|  8> end
|  9> 
| 10> * xyz 0 1
| 11>   O           2.87656454481530      0.80946736044741      0.85448586843088
| 12>   O           2.77269454055090     -0.96332361473995     -0.38661897010862
| 13>   N           2.25631860375275     -0.01379303197640      0.19054341415907
| 14>   N          -3.31609013918579      0.60001008431837     -0.25324649621293
| 15>   C           0.81333896557414      0.14809414426896      0.08299865461338
| 16>   C          -1.96962543044383      0.46299698683321     -0.13618345678840
| 17>   C           0.18470214933138      1.21989962469034      0.72617610121268
| 18>   C           0.06824333123552     -0.77000220606507     -0.66682495697242
| 19>   C          -1.18810381366417      1.37450755005098      0.61824733952640
| 20>   C          -1.30328911401727     -0.61787816379992     -0.77384903771329
| 21>   H           0.78645369438837      1.92056392988080      1.30439758660884
| 22>   H           0.59062973303391     -1.59252417757548     -1.15474257469431
| 23>   H          -1.67967150193527      2.21126312299230      1.12177886679087
| 24>   H          -1.89604969454516     -1.32186327456378     -1.36035890188371
| 25>   H          -3.77358973331552      1.42198128897123      0.11404941187973
| 26>   H          -3.83388426346398     -0.03368054682233     -0.86047080254104
| 27>   O          -4.42149511493337     -1.26354997779503     -2.20390295994003
| 28>   H          -4.43640404806728     -2.22459337264894     -2.09216661046373
| 29>   H          -4.05430323851051     -1.12482184376669     -3.08898417660328
| 30> *           
| 31> 
| 32> 
| 33>                          ****END OF INPUT****
================================================================================

                       *****************************
                       * Geometry Optimization Run *
                       *****************************

Geometry optimization settings:
Update method            Update   .... BFGS
Choice of coordinates    CoordSys .... (2022) Redundant Internals
Initial Hessian          InHess   .... Almloef's Model
Max. no of cycles        MaxIter  .... 57

Convergence Tolerances:
Energy Change            TolE     ....  5.0000e-06 Eh
Max. Gradient            TolMAXG  ....  3.0000e-04 Eh/bohr
RMS Gradient             TolRMSG  ....  1.0000e-04 Eh/bohr
Max. Displacement        TolMAXD  ....  4.0000e-03 bohr
RMS Displacement         TolRMSD  ....  2.0000e-03 bohr
Strict Convergence                .... False

------------------------------------------------------------------------------
                        ORCA OPTIMIZATION COORDINATE SETUP
------------------------------------------------------------------------------

The optimization will be done in redundant internal coordinates (2022)
Making redundant internal coordinates   ...  (2022 redundants) done
Evaluating the initial hessian          ...  (Almloef) done
Evaluating the coordinates              ...  done
Calculating the B-matrix                .... done
Calculating the G-matrix                .... done
Diagonalizing the G-matrix              .... done
Small eigenvalue found = 8.595e-03
The first mode is                       ....   32
The number of degrees of freedom        ....   51

    -----------------------------------------------------------------
                    Redundant Internal Coordinates


    -----------------------------------------------------------------
         Definition                    Initial Value    Approx d2E/dq
    -----------------------------------------------------------------
      1. B(N   2,O   0)                  1.2261         0.915229   
      2. B(N   2,O   1)                  1.2253         0.917857   
      3. B(C   4,N   2)                  1.4560         0.439098   
      4. B(C   5,N   3)                  1.3585         0.628316   
      5. B(C   6,C   4)                  1.3992         0.604138   
      6. B(C   7,C   4)                  1.4001         0.602020   
      7. B(C   8,C   5)                  1.4180         0.563673   
      8. B(C   8,C   6)                  1.3857         0.634758   
      9. B(C   9,C   7)                  1.3841         0.638517   
     10. B(C   9,C   5)                  1.4209         0.557782   
     11. B(H  10,C   6)                  1.0897         0.360540   
     12. B(H  11,C   7)                  1.0897         0.360468   
     13. B(H  12,C   8)                  1.0933         0.355738   
     14. B(H  13,C   9)                  1.0913         0.358373   
     15. B(H  14,N   3)                  1.0099         0.432906   
     16. B(H  15,N   3)                  1.0190         0.418609   
     17. B(O  16,H  15)                  1.9138         0.015639   
     18. B(H  17,O  16)                  0.9676         0.505581   
     19. B(H  18,O  16)                  0.9682         0.504495   
     20. A(O   0,N   2,C   4)          117.8197         0.428966   
     21. A(O   0,N   2,O   1)          124.2093         0.487337   
     22. A(O   1,N   2,C   4)          117.9710         0.429186   
     23. A(H  14,N   3,H  15)          119.5174         0.301679   
     24. A(C   5,N   3,H  15)          119.4899         0.357463   
     25. A(C   5,N   3,H  14)          119.9849         0.359511   
     26. A(C   6,C   4,C   7)          120.6238         0.429770   
     27. A(N   2,C   4,C   7)          119.6076         0.403419   
     28. A(N   2,C   4,C   6)          119.7684         0.403669   
     29. A(N   3,C   5,C   8)          121.8217         0.424940   
     30. A(C   8,C   5,C   9)          117.9882         0.418720   
     31. A(N   3,C   5,C   9)          120.1897         0.424142   
     32. A(C   8,C   6,H  10)          121.1102         0.354391   
     33. A(C   4,C   6,H  10)          119.2342         0.351438   
     34. A(C   4,C   6,C   8)          119.6556         0.433879   
     35. A(C   4,C   7,C   9)          119.7808         0.434066   
     36. A(C   9,C   7,H  11)          121.5583         0.354734   
     37. A(C   4,C   7,H  11)          118.6610         0.351218   
     38. A(C   6,C   8,H  12)          119.6664         0.353587   
     39. A(C   5,C   8,H  12)          119.2875         0.346569   
     40. A(C   5,C   8,C   6)          121.0460         0.428510   
     41. A(C   5,C   9,C   7)          120.9047         0.428156   
     42. A(C   7,C   9,H  13)          120.5902         0.354384   
     43. A(C   5,C   9,H  13)          118.5019         0.346387   
     44. A(N   3,H  15,O  16)          166.8907         0.189301   
     45. A(H  15,O  16,H  18)          115.6691         0.193629   
     46. A(H  15,O  16,H  17)          124.1890         0.193680   
     47. A(H  17,O  16,H  18)          104.6971         0.318786   
     48. D(C   7,C   4,N   2,O   1)     -0.1010         0.015184   
     49. D(C   7,C   4,N   2,O   0)    179.9511         0.015184   
     50. D(C   6,C   4,N   2,O   1)   -179.9479         0.015184   
     51. D(C   6,C   4,N   2,O   0)      0.1042         0.015184   
     52. D(C   9,C   5,N   3,H  14)   -173.2717         0.032035   
     53. D(C   8,C   5,N   3,H  14)      6.9621         0.032035   
     54. D(C   8,C   5,N   3,H  15)    175.4265         0.032035   
     55. D(C   9,C   5,N   3,H  15)     -4.8074         0.032035   
     56. D(H  10,C   6,C   4,C   7)    179.9584         0.025180   
     57. D(H  10,C   6,C   4,N   2)     -0.1963         0.025180   
     58. D(C   8,C   6,C   4,C   7)     -0.0795         0.025180   
     59. D(C   8,C   6,C   4,N   2)    179.7659         0.025180   
     60. D(C   9,C   7,C   4,C   6)     -0.0147         0.024994   
     61. D(C   9,C   7,C   4,N   2)   -179.8602         0.024994   
     62. D(H  11,C   7,C   4,N   2)      0.1288         0.024994   
     63. D(H  11,C   7,C   4,C   6)    179.9744         0.024994   
     64. D(H  12,C   8,C   6,H  10)     -0.1138         0.027964   
     65. D(C   5,C   8,C   6,H  10)    179.9071         0.027964   
     66. D(C   5,C   8,C   6,C   4)     -0.0543         0.027964   
     67. D(H  12,C   8,C   5,C   9)   -179.7072         0.021775   
     68. D(H  12,C   8,C   5,N   3)      0.0638         0.021775   
     69. D(H  12,C   8,C   6,C   4)    179.9248         0.027964   
     70. D(C   6,C   8,C   5,C   9)      0.2720         0.021775   
     71. D(C   6,C   8,C   5,N   3)   -179.9570         0.021775   
     72. D(C   5,C   9,C   7,H  11)   -179.7461         0.028318   
     73. D(C   5,C   9,C   7,C   4)      0.2426         0.028318   
     74. D(H  13,C   9,C   5,C   8)   -179.7275         0.021305   
     75. D(H  13,C   9,C   5,N   3)      0.4976         0.021305   
     76. D(C   7,C   9,C   5,C   8)     -0.3668         0.021305   
     77. D(H  13,C   9,C   7,C   4)    179.5899         0.028318   
     78. D(C   7,C   9,C   5,N   3)    179.8582         0.021305   
     79. D(H  13,C   9,C   7,H  11)     -0.3988         0.028318   
     80. D(O  16,H  15,N   3,H  14)    143.8738         0.198860   
     81. D(O  16,H  15,N   3,C   5)    -24.6449         0.198860   
     82. D(H  18,O  16,H  15,N   3)    -38.9564         0.001628   
     83. D(H  17,O  16,H  15,N   3)     92.8625         0.001628   
    -----------------------------------------------------------------

Number of atoms                         .... 19
Number of degrees of freedom            .... 83


         *************************************************************
         *                GEOMETRY OPTIMIZATION CYCLE   1            *
         *************************************************************
---------------------------------
CARTESIAN COORDINATES (ANGSTROEM)
---------------------------------
  O      2.876565    0.809467    0.854486
  O      2.772695   -0.963324   -0.386619
  N      2.256319   -0.013793    0.190543
  N     -3.316090    0.600010   -0.253246
  C      0.813339    0.148094    0.082999
  C     -1.969625    0.462997   -0.136183
  C      0.184702    1.219900    0.726176
  C      0.068243   -0.770002   -0.666825
  C     -1.188104    1.374508    0.618247
  C     -1.303289   -0.617878   -0.773849
  H      0.786454    1.920564    1.304398
  H      0.590630   -1.592524   -1.154743
  H     -1.679672    2.211263    1.121779
  H     -1.896050   -1.321863   -1.360359
  H     -3.773590    1.421981    0.114049
  H     -3.833884   -0.033681   -0.860471
  O     -4.421495   -1.263550   -2.203903
  H     -4.436404   -2.224593   -2.092167
  H     -4.054303   -1.124822   -3.088984

----------------------------
CARTESIAN COORDINATES (A.U.)
----------------------------
  NO LB      ZA    FRAG     MASS         X           Y           Z
   0 O     8.0000    0    15.999    5.435919    1.529672    1.614744
   1 O     8.0000    0    15.999    5.239633   -1.820418   -0.730604
   2 N     7.0000    0    14.007    4.263824   -0.026065    0.360075
   3 N     7.0000    0    14.007   -6.266502    1.133855   -0.478567
   4 C     6.0000    0    12.011    1.536988    0.279857    0.156845
   5 C     6.0000    0    12.011   -3.722053    0.874938   -0.257349
   6 C     6.0000    0    12.011    0.349036    2.305276    1.372274
   7 C     6.0000    0    12.011    0.128961   -1.455093   -1.260117
   8 C     6.0000    0    12.011   -2.245191    2.597443    1.168318
   9 C     6.0000    0    12.011   -2.462859   -1.167621   -1.462363
  10 H     1.0000    0     1.008    1.486182    3.629340    2.464954
  11 H     1.0000    0     1.008    1.116128   -3.009435   -2.182147
  12 H     1.0000    0     1.008   -3.174119    4.178682    2.119855
  13 H     1.0000    0     1.008   -3.583015   -2.497960   -2.570706
  14 H     1.0000    0     1.008   -7.131051    2.687155    0.215522
  15 H     1.0000    0     1.008   -7.244991   -0.063647   -1.626054
  16 O     8.0000    0    15.999   -8.355415   -2.387763   -4.164773
  17 H     1.0000    0     1.008   -8.383589   -4.203872   -3.953622
  18 H     1.0000    0     1.008   -7.661523   -2.125605   -5.837334

--------------------------------
INTERNAL COORDINATES (ANGSTROEM)
--------------------------------
 O      0   0   0     0.000000000000     0.00000000     0.00000000
 O      1   0   0     2.166545185252     0.00000000     0.00000000
 N      2   1   0     1.225303576066    27.90501409     0.00000000
 N      3   2   1     5.623650322388   117.71001643   179.86179821
 C      3   2   1     1.456009467461   117.97103502   180.05569452
 C      4   3   2     1.358471036117     0.63142120   173.73810552
 C      5   3   2     1.399152765931   119.76843913   180.05209287
 C      5   3   2     1.400108517687   119.60755484   359.89902125
 C      7   5   3     1.385694208770   119.65559218   179.76585182
 C      8   5   3     1.384087109424   119.78076808   180.13975447
 H      7   5   3     1.089667599188   119.23424327   359.80370494
 H      8   5   3     1.089721775539   118.66095995     0.12879473
 H      9   7   5     1.093317282380   119.66643665   179.92479932
 H     10   8   5     1.091308371989   120.59023080   179.58993016
 H      4   3   2     1.009875647795   120.59952361   187.04202268
 H      4   3   2     1.019017138879   118.85870171   355.41144186
 O     16   4   3     1.913811717892   166.89068983   335.37623311
 H     17  16   4     0.967632003850   124.18898560    92.86245838
 H     17  16   4     0.968216984654   115.66909829   321.04357706

---------------------------
INTERNAL COORDINATES (A.U.)
---------------------------
 O      0   0   0     0.000000000000     0.00000000     0.00000000
 O      1   0   0     4.094177056892     0.00000000     0.00000000
 N      2   1   0     2.315488189680    27.90501409     0.00000000
 N      3   2   1    10.627158982252   117.71001643   179.86179821
 C      3   2   1     2.751459141898   117.97103502   180.05569452
 C      4   3   2     2.567138219126     0.63142120   173.73810552
 C      5   3   2     2.644015547127   119.76843913   180.05209287
 C      5   3   2     2.645821656198   119.60755484   359.89902125
 C      7   5   3     2.618582559937   119.65559218   179.76585182
 C      8   5   3     2.615545582303   119.78076808   180.13975447
 H      7   5   3     2.059173339473   119.23424327   359.80370494
 H      8   5   3     2.059275717940   118.66095995     0.12879473
 H      9   7   5     2.066070241180   119.66643665   179.92479932
 H     10   8   5     2.062273950715   120.59023080   179.58993016
 H      4   3   2     1.908388403648   120.59952361   187.04202268
 H      4   3   2     1.925663318252   118.85870171   355.41144186
 O     16   4   3     3.616580018705   166.89068983   335.37623311
 H     17  16   4     1.828559485693   124.18898560    92.86245838
 H     17  16   4     1.829664939207   115.66909829   321.04357706

---------------------
BASIS SET INFORMATION
---------------------
There are 4 groups of distinct atoms

 Group   1 Type O   : 7s4p1d contracted to 3s2p1d pattern {511/31/1}
 Group   2 Type N   : 7s4p1d contracted to 3s2p1d pattern {511/31/1}
 Group   3 Type C   : 7s4p1d contracted to 3s2p1d pattern {511/31/1}
 Group   4 Type H   : 4s1p contracted to 2s1p pattern {31/1}

Atom   0O    basis set group =>   1
Atom   1O    basis set group =>   1
Atom   2N    basis set group =>   2
Atom   3N    basis set group =>   2
Atom   4C    basis set group =>   3
Atom   5C    basis set group =>   3
Atom   6C    basis set group =>   3
Atom   7C    basis set group =>   3
Atom   8C    basis set group =>   3
Atom   9C    basis set group =>   3
Atom  10H    basis set group =>   4
Atom  11H    basis set group =>   4
Atom  12H    basis set group =>   4
Atom  13H    basis set group =>   4
Atom  14H    basis set group =>   4
Atom  15H    basis set group =>   4
Atom  16O    basis set group =>   1
Atom  17H    basis set group =>   4
Atom  18H    basis set group =>   4
---------------------------------
AUXILIARY/J BASIS SET INFORMATION
---------------------------------
There are 4 groups of distinct atoms

 Group   1 Type O   : 12s5p4d2f1g contracted to 6s4p3d1f1g pattern {711111/2111/211/2/1}
 Group   2 Type N   : 12s5p4d2f1g contracted to 6s4p3d1f1g pattern {711111/2111/211/2/1}
 Group   3 Type C   : 12s5p4d2f1g contracted to 6s4p3d1f1g pattern {711111/2111/211/2/1}
 Group   4 Type H   : 5s2p1d contracted to 3s1p1d pattern {311/2/1}

Atom   0O    basis set group =>   1
Atom   1O    basis set group =>   1
Atom   2N    basis set group =>   2
Atom   3N    basis set group =>   2
Atom   4C    basis set group =>   3
Atom   5C    basis set group =>   3
Atom   6C    basis set group =>   3
Atom   7C    basis set group =>   3
Atom   8C    basis set group =>   3
Atom   9C    basis set group =>   3
Atom  10H    basis set group =>   4
Atom  11H    basis set group =>   4
Atom  12H    basis set group =>   4
Atom  13H    basis set group =>   4
Atom  14H    basis set group =>   4
Atom  15H    basis set group =>   4
Atom  16O    basis set group =>   1
Atom  17H    basis set group =>   4
Atom  18H    basis set group =>   4
--------------------------------------------------------------------------
By default, for Open MPI 4.0 and later, infiniband ports on a device
are not used by default.  The intent is to use UCX for these devices.
You can override this policy by setting the btl_openib_allow_ib MCA parameter
to true.

  Local host:              psid02
  Local adapter:           mlx5_0
  Local port:              1

--------------------------------------------------------------------------
--------------------------------------------------------------------------
WARNING: There was an error initializing an OpenFabrics device.

  Local host:   psid02
  Local device: mlx5_0
--------------------------------------------------------------------------


           ************************************************************
           *        Program running with 28 parallel MPI-processes    *
           *              working on a common directory               *
           ************************************************************
------------------------------------------------------------------------------
                             ORCA STARTUP CALCULATIONS
                           -- RI-GTO INTEGRALS CHOSEN --
------------------------------------------------------------------------------
------------------------------------------------------------------------------
                   ___                                                        
                  /   \      - P O W E R E D   B Y -                         
                 /     \                                                     
                 |  |  |   _    _      __       _____    __    __             
                 |  |  |  | |  | |    /  \     |  _  \  |  |  /  |          
                  \  \/   | |  | |   /    \    | | | |  |  | /  /          
                 / \  \   | |__| |  /  /\  \   | |_| |  |  |/  /          
                |  |  |   |  __  | /  /__\  \  |    /   |      \           
                |  |  |   | |  | | |   __   |  |    \   |  |\   \          
                \     /   | |  | | |  |  |  |  | |\  \  |  | \   \       
                 \___/    |_|  |_| |__|  |__|  |_| \__\ |__|  \__/        
                                                                              
                      - O R C A' S   B I G   F R I E N D -                    
                                      &                                       
                       - I N T E G R A L  F E E D E R -                       
                                                                              
 v1 FN, 2020, v2 2021, v3 2022-2024                                           
------------------------------------------------------------------------------


----------------------
SHARK INTEGRAL PACKAGE
----------------------

Number of atoms                             ...     19
Number of basis functions                   ...    194
Number of shells                            ...     90
Maximum angular momentum                    ...      2
Integral batch strategy                     ... SHARK/LIBINT Hybrid
RI-J (if used) integral strategy            ... SPLIT-RIJ (Revised 2003 algorithm where possible)
Printlevel                                  ...      1
Contraction scheme used                     ... SEGMENTED contraction
Prescreening option                         ... SCHWARTZ
   Thresh                                   ... 2.500e-11
   Tcut                                     ... 2.500e-12
   Tpresel                                  ... 2.500e-12 
Coulomb Range Separation                    ... NOT USED
Exchange Range Separation                   ... NOT USED
Multipole approximations                    ... NOT USED
Finite Nucleus Model                        ... NOT USED
CABS basis                                  ... NOT available
Auxiliary Coulomb fitting basis             ... AVAILABLE
   # of basis functions in Aux-J            ...    627
   # of shells in Aux-J                     ...    205
   Maximum angular momentum in Aux-J        ...      4
Auxiliary J/K fitting basis                 ... NOT available
Auxiliary Correlation fitting basis         ... NOT available
Auxiliary 'external' fitting basis          ... NOT available

Checking pre-screening integrals            ... done (  0.0 sec) Dimension = 90
Check shell pair data                       ... done (  0.0 sec)
Shell pair information
Shell pair cut-off parameter TPreSel        ...   2.5e-12
Total number of shell pairs                 ...      4095
Shell pairs after pre-screening             ...      3452
Total number of primitive shell pairs       ...     15045
Primitive shell pairs kept                  ...      8869
          la=0 lb=0:   1047 shell pairs
          la=1 lb=0:   1254 shell pairs
          la=1 lb=1:    397 shell pairs
          la=2 lb=0:    435 shell pairs
          la=2 lb=1:    267 shell pairs
          la=2 lb=2:     52 shell pairs

Calculating one electron integrals          ... done (  0.0 sec)
Calculating RI/J V-Matrix + Cholesky decomp.... done (  0.0 sec)
Calculating Nuclear repulsion               ... done (  0.0 sec) ENN=    582.013441175061 Eh

Diagonalization of the overlap matrix:
Smallest eigenvalue                        ... 2.588e-04
Time for diagonalization                   ...    0.004 sec
Threshold for overlap eigenvalues          ... 1.000e-07
Number of eigenvalues below threshold      ... 0
Time for construction of square roots      ...    0.003 sec
Total time needed                          ...    0.012 sec

-------------------
DFT GRID GENERATION
-------------------

General Integration Accuracy     IntAcc      ... 4.388
Radial Grid Type                 RadialGrid  ... OptM3 with GC (2021)
Angular Grid (max. ang.)         AngularGrid ... 4 (Lebedev-302)
Angular grid pruning method      GridPruning ... 4 (adaptive)
Weight generation scheme         WeightScheme... mBecke (2022)
Basis function cutoff            BFCut       ... 1.0000e-11
Integration weight cutoff        WCut        ... 1.0000e-14
Partially contracted basis set               ... off
Rotationally invariant grid construction     ... off
Angular grids for H and He will be reduced by one unit

Total number of grid points                  ...    92219
Total number of batches                      ...     1451
Average number of points per batch           ...       63
Average number of grid points per atom       ...     4854

--------------------
COSX GRID GENERATION
--------------------

GRIDX 1
-------
General Integration Accuracy     IntAcc      ... 3.816
Radial Grid Type                 RadialGrid  ... OptM3 with GC (2021)
Angular Grid (max. ang.)         AngularGrid ... 1 (Lebedev-50)
Angular grid pruning method      GridPruning ... 4 (adaptive)
Weight generation scheme         WeightScheme... mBecke (2022)
Basis function cutoff            BFCut       ... 1.0000e-11
Integration weight cutoff        WCut        ... 1.0000e-14
Partially contracted basis set               ... on
Rotationally invariant grid construction     ... off
Angular grids for H and He will be reduced by one unit

Total number of grid points                  ...    11724
Total number of batches                      ...      102
Average number of points per batch           ...      114
Average number of grid points per atom       ...      617
UseSFitting                                  ... on

GRIDX 2
-------
General Integration Accuracy     IntAcc      ... 4.020
Radial Grid Type                 RadialGrid  ... OptM3 with GC (2021)
Angular Grid (max. ang.)         AngularGrid ... 2 (Lebedev-110)
Angular grid pruning method      GridPruning ... 4 (adaptive)
Weight generation scheme         WeightScheme... mBecke (2022)
Basis function cutoff            BFCut       ... 1.0000e-11
Integration weight cutoff        WCut        ... 1.0000e-14
Partially contracted basis set               ... on
Rotationally invariant grid construction     ... off
Angular grids for H and He will be reduced by one unit

Total number of grid points                  ...    25952
Total number of batches                      ...      210
Average number of points per batch           ...      123
Average number of grid points per atom       ...     1366
UseSFitting                                  ... on

GRIDX 3
-------
General Integration Accuracy     IntAcc      ... 4.338
Radial Grid Type                 RadialGrid  ... OptM3 with GC (2021)
Angular Grid (max. ang.)         AngularGrid ... 3 (Lebedev-194)
Angular grid pruning method      GridPruning ... 4 (adaptive)
Weight generation scheme         WeightScheme... mBecke (2022)
Basis function cutoff            BFCut       ... 1.0000e-11
Integration weight cutoff        WCut        ... 1.0000e-14
Partially contracted basis set               ... on
Rotationally invariant grid construction     ... off
Angular grids for H and He will be reduced by one unit

Total number of grid points                  ...    57073
Total number of batches                      ...      455
Average number of points per batch           ...      125
Average number of grid points per atom       ...     3004
UseSFitting                                  ... on
Initializing property integral containers    ... done (  0.0 sec)

SHARK setup successfully completed in   1.0 seconds

Maximum memory used throughout the entire STARTUP-calculation: 23.4 MB
[psid02:247100] 27 more processes have sent help message help-mpi-btl-openib.txt / ib port not selected
[psid02:247100] Set MCA parameter "orte_base_help_aggregate" to 0 to see all help / error messages
[psid02:247100] 27 more processes have sent help message help-mpi-btl-openib.txt / error in device init
--------------------------------------------------------------------------
By default, for Open MPI 4.0 and later, infiniband ports on a device
are not used by default.  The intent is to use UCX for these devices.
You can override this policy by setting the btl_openib_allow_ib MCA parameter
to true.

  Local host:              psid02
  Local adapter:           mlx5_0
  Local port:              1

--------------------------------------------------------------------------
--------------------------------------------------------------------------
WARNING: There was an error initializing an OpenFabrics device.

  Local host:   psid02
  Local device: mlx5_0
--------------------------------------------------------------------------


           ************************************************************
           *        Program running with 28 parallel MPI-processes    *
           *              working on a common directory               *
           ************************************************************
-------------------------------------------------------------------------------
                                 ORCA GUESS
                   Start orbitals & Density for SCF / CASSCF
-------------------------------------------------------------------------------

------------
SCF SETTINGS
------------
Hamiltonian:
 Density Functional     Method          .... DFT(GTOs)
 Exchange Functional    Exchange        .... B88
   X-Alpha parameter    XAlpha          ....  0.666667
   Becke's b parameter  XBeta           ....  0.004200
 Correlation Functional Correlation     .... LYP
 LDA part of GGA corr.  LDAOpt          .... VWN-5
 Gradients option       PostSCFGGA      .... off
 Hybrid DFT is turned on
   Fraction HF Exchange ScalHFX         ....  0.200000
   Scaling of DF-GGA-X  ScalDFX         ....  0.720000
   Scaling of DF-GGA-C  ScalDFC         ....  0.810000
   Scaling of DF-LDA-C  ScalLDAC        ....  1.000000
   Perturbative correction              ....  0.000000
   NL short-range parameter             ....  4.800000
 RI-approximation to the Coulomb term is turned on
   Number of AuxJ basis functions       .... 627
   RIJ-COSX (HFX calculated with COS-X)).... on


General Settings:
 Integral files         IntName         .... 4nitroaniline_water_2_OPT
 Hartree-Fock type      HFTyp           .... RHF
 Total Charge           Charge          ....    0
 Multiplicity           Mult            ....    1
 Number of Electrons    NEL             ....   82
 Basis Dimension        Dim             ....  194
 Nuclear Repulsion      ENuc            ....    582.0134411751 Eh

Convergence Acceleration:
 AO-DIIS                CNVDIIS         .... on
   Start iteration      DIISMaxIt       ....    12
   Startup error        DIISStart       ....  0.200000
   # of expansion vecs  DIISMaxEq       ....     5
   Bias factor          DIISBfac        ....   1.050
   Max. coefficient     DIISMaxC        ....  10.000
 MO-DIIS                CNVKDIIS        .... off
 Trust-Rad. Augm. Hess. CNVTRAH         .... auto
   Auto Start mean grad. ratio tolernc. ....  1.125000
   Auto Start start iteration           ....    50
   Auto Start num. interpolation iter.  ....    10
   Max. Number of Micro iterations      ....    24
   Max. Number of Macro iterations      .... Maxiter - #DIIS iter
   Number of Davidson start vectors     ....     2
   Converg. threshold    (grad. norm)   ....   1.000e-05
   Grad. Scal. Fac. for Micro threshold ....   0.100
   Minimum threshold for Micro iter.    ....   1.000e-02
   NR start threshold (gradient norm)   ....   1.000e-04
   Initial trust radius                 ....   0.400
   Minimum AH scaling param. (alpha)    ....   1.000
   Maximum AH scaling param. (alpha)    .... 1000.000
   Quad. conv. algorithm                .... NR
   White noise on init. David. guess    .... on
   Maximum white noise                  ....   0.010
   Pseudo random numbers                .... off
   Inactive MOs                         .... canonical
   Orbital update algorithm             .... Taylor
   Preconditioner                       .... Diag
   Full preconditioner red. dimension   ....   250
 SOSCF                  CNVSOSCF        .... on
   Start iteration      SOSCFMaxIt      ....   150
   Startup grad/error   SOSCFStart      ....  0.003300
   Hessian update       SOSCFHessUp     .... L-BFGS
 Level Shifting         CNVShift        .... on
   Level shift para.    LevelShift      ....    0.2500
   Turn off err/grad.   ShiftErr        ....    0.0010
 Zerner damping         CNVZerner       .... off
 Static damping         CNVDamp         .... on
   Fraction old density DampFac         ....    0.7000
   Max. Damping (<1)    DampMax         ....    0.9800
   Min. Damping (>=0)   DampMin         ....    0.0000
   Turn off err/grad.   DampErr         ....    0.1000

SCF Procedure:
 Maximum # iterations   MaxIter         ....   125
 SCF integral mode      SCFMode         .... Direct
   Integral package                     .... SHARK and LIBINT hybrid scheme
 Reset frequency        DirectResetFreq ....    20
 Integral Threshold     Thresh          ....  2.500e-11 Eh
 Primitive CutOff       TCut            ....  2.500e-12 Eh

Convergence Tolerance:
 Convergence Check Mode ConvCheckMode   .... Total+1el-Energy
 Convergence forced     ConvForced      .... 0
 Energy Change          TolE            ....  1.000e-08 Eh
 1-El. energy change                    ....  1.000e-05 Eh
 Orbital Gradient       TolG            ....  1.000e-05
 Orbital Rotation angle TolX            ....  1.000e-05
 DIIS Error             TolErr          ....  5.000e-07

------------------------------
INITIAL GUESS: MODEL POTENTIAL
------------------------------
Loading Hartree-Fock densities                     ... done
Calculating cut-offs                               ... done
Initializing the effective Hamiltonian             ... done
Setting up the integral package (SHARK)            ... done
Starting the Coulomb interaction                   ... done (   0.0 sec)
Making the grid                                    ... done (   0.1 sec)
Mapping shells                                     ... done
Starting the XC term evaluation                    ... done (   0.0 sec)
  promolecular density results
     # of electrons  =     81.996262495
     EX              =    -70.965988963
     EC              =     -2.833633584
     EX+EC           =    -73.799622547
Transforming the Hamiltonian                       ... done (   0.0 sec)
Diagonalizing the Hamiltonian                      ... done (   0.0 sec)
Back transforming the eigenvectors                 ... done (   0.0 sec)
Now organizing SCF variables                       ... done
                      ------------------
                      INITIAL GUESS DONE (   0.2 sec)
                      ------------------
             **** ENERGY FILE WAS UPDATED (4nitroaniline_water_2_OPT.en.tmp) ****
Finished Guess after   1.0 sec
Maximum memory used throughout the entire GUESS-calculation: 13.4 MB
[psid02:247204] 27 more processes have sent help message help-mpi-btl-openib.txt / ib port not selected
[psid02:247204] Set MCA parameter "orte_base_help_aggregate" to 0 to see all help / error messages
[psid02:247204] 27 more processes have sent help message help-mpi-btl-openib.txt / error in device init
--------------------------------------------------------------------------
By default, for Open MPI 4.0 and later, infiniband ports on a device
are not used by default.  The intent is to use UCX for these devices.
You can override this policy by setting the btl_openib_allow_ib MCA parameter
to true.

  Local host:              psid02
  Local adapter:           mlx5_0
  Local port:              1

--------------------------------------------------------------------------
--------------------------------------------------------------------------
WARNING: There was an error initializing an OpenFabrics device.

  Local host:   psid02
  Local device: mlx5_0
--------------------------------------------------------------------------


           ************************************************************
           *        Program running with 28 parallel MPI-processes    *
           *              working on a common directory               *
           ************************************************************

-------------------------------------------------------------------------------------------
                                      ORCA LEAN-SCF
                              memory conserving SCF solver
-------------------------------------------------------------------------------------------

----------------------------------------D-I-I-S--------------------------------------------
Iteration    Energy (Eh)           Delta-E    RMSDP     MaxDP     DIISErr   Damp  Time(sec)
-------------------------------------------------------------------------------------------
               ***  Starting incremental Fock matrix formation  ***
    1    -567.4576003026171520     0.00e+00  4.04e-03  8.68e-02  2.81e-01  0.700   0.5
    2    -567.6341351013571739    -1.77e-01  2.51e-03  4.71e-02  1.17e-01  0.700   0.4
                               ***Turning on AO-DIIS***
    3    -567.6957301646951919    -6.16e-02  1.08e-03  1.74e-02  3.59e-02  0.700   0.3
    4    -567.7351344553036370    -3.94e-02  1.87e-03  3.00e-02  1.49e-02  0.000   0.4
    5    -567.8236765195905491    -8.85e-02  3.52e-04  6.34e-03  5.60e-03  0.000   0.3
                              *** Initializing SOSCF ***
---------------------------------------S-O-S-C-F--------------------------------------
Iteration    Energy (Eh)           Delta-E    RMSDP     MaxDP     MaxGrad    Time(sec)
--------------------------------------------------------------------------------------
    6    -567.8241736519877350    -4.97e-04  1.21e-04  3.01e-03  1.60e-03     0.3
               *** Restarting incremental Fock matrix formation ***
    7    -567.8242057125470410    -3.21e-05  9.17e-05  2.03e-03  4.11e-04     0.4
    8    -567.8242045169014318     1.20e-06  3.99e-05  7.66e-04  5.91e-04     0.3
    9    -567.8242127426809702    -8.23e-06  2.07e-05  5.49e-04  1.30e-04     0.3
   10    -567.8242122913201229     4.51e-07  1.14e-05  4.67e-04  2.98e-04     0.3
   11    -567.8242130732575106    -7.82e-07  1.11e-05  2.33e-04  1.11e-04     0.3
   12    -567.8242129432759384     1.30e-07  6.51e-06  1.47e-04  9.28e-05     0.3
   13    -567.8242131874707184    -2.44e-07  3.37e-06  1.10e-04  3.42e-05     0.3
[psid02:247295] 27 more processes have sent help message help-mpi-btl-openib.txt / ib port not selected
[psid02:247295] Set MCA parameter "orte_base_help_aggregate" to 0 to see all help / error messages
[psid02:247295] 27 more processes have sent help message help-mpi-btl-openib.txt / error in device init
   14    -567.8242131637665580     2.37e-08  2.13e-06  5.73e-05  4.57e-05     0.3
   15    -567.8242131996875059    -3.59e-08  6.13e-07  1.22e-05  4.74e-06     0.3
   16    -567.8242132029614595    -3.27e-09  3.54e-07  7.17e-06  6.53e-06     0.3
                 **** Energy Check signals convergence ****

               *****************************************************
               *                     SUCCESS                       *
               *           SCF CONVERGED AFTER  16 CYCLES          *
               *****************************************************

Recomputing exchange energy using gridx3       ... done (    0.354 sec)
Old exchange energy                            :    -14.332177046 Eh
New exchange energy                            :    -14.332216162 Eh
Exchange energy change after final integration :     -0.000039116 Eh
Total energy after final integration           :   -567.824252319 Eh
             **** ENERGY FILE WAS UPDATED (4nitroaniline_water_2_OPT.en.tmp) ****

----------------
TOTAL SCF ENERGY
----------------

Total Energy       :       -567.82425231852096 Eh          -15451.28343 eV

Components:
Nuclear Repulsion  :        582.01344117506085 Eh           15837.39089 eV
Electronic Energy  :      -1149.83765437802231 Eh          -31288.67326 eV
One Electron Energy:      -1928.38681624246101 Eh          -52474.07300 eV
Two Electron Energy:        778.54916186443870 Eh           21185.39974 eV

Virial components:
Potential Energy   :      -1130.91943159656262 Eh          -30773.88225 eV
Kinetic Energy     :        563.09517927804166 Eh           15322.59881 eV
Virial Ratio       :          2.00839835469120

DFT components:
N(Alpha)           :       40.999976854720 electrons
N(Beta)            :       40.999976854720 electrons
N(Total)           :       81.999953709439 electrons
E(X)               :      -57.073688399431 Eh       
E(C)               :       -3.340659352286 Eh       
E(XC)              :      -60.414347751717 Eh       

---------------
SCF CONVERGENCE
---------------

  Last Energy change         ...    3.2740e-09  Tolerance :   1.0000e-08
  Last MAX-Density change    ...    7.1675e-06  Tolerance :   1.0000e-07
  Last RMS-Density change    ...    3.5386e-07  Tolerance :   5.0000e-09
  Last DIIS Error            ...    1.6048e-03  Tolerance :   5.0000e-07
  Last Orbital Gradient      ...    6.5326e-06  Tolerance :   1.0000e-05
  Last Orbital Rotation      ...    3.6726e-06  Tolerance :   1.0000e-05


----------------
ORBITAL ENERGIES
----------------

  NO   OCC          E(Eh)            E(eV) 
   0   2.0000     -19.177318      -521.8413 
   1   2.0000     -19.131848      -520.6040 
   2   2.0000     -19.131431      -520.5927 
   3   2.0000     -14.530748      -395.4017 
   4   2.0000     -14.341355      -390.2481 
   5   2.0000     -10.244880      -278.7773 
   6   2.0000     -10.216841      -278.0144 
   7   2.0000     -10.200598      -277.5724 
   8   2.0000     -10.200578      -277.5718 
   9   2.0000     -10.191788      -277.3327 
  10   2.0000     -10.191223      -277.3173 
  11   2.0000      -1.191320       -32.4175 
  12   2.0000      -1.033359       -28.1191 
  13   2.0000      -1.016189       -27.6519 
  14   2.0000      -0.922434       -25.1007 
  15   2.0000      -0.851716       -23.1764 
  16   2.0000      -0.766089       -20.8463 
  17   2.0000      -0.748913       -20.3790 
  18   2.0000      -0.666124       -18.1261 
  19   2.0000      -0.621769       -16.9192 
  20   2.0000      -0.576228       -15.6800 
  21   2.0000      -0.566119       -15.4049 
  22   2.0000      -0.539405       -14.6780 
  23   2.0000      -0.530963       -14.4482 
  24   2.0000      -0.514874       -14.0104 
  25   2.0000      -0.512538       -13.9469 
  26   2.0000      -0.480253       -13.0683 
  27   2.0000      -0.446983       -12.1630 
  28   2.0000      -0.445722       -12.1287 
  29   2.0000      -0.430770       -11.7218 
  30   2.0000      -0.419826       -11.4240 
  31   2.0000      -0.406215       -11.0537 
  32   2.0000      -0.396638       -10.7931 
  33   2.0000      -0.357973        -9.7409 
  34   2.0000      -0.341812        -9.3012 
  35   2.0000      -0.324699        -8.8355 
  36   2.0000      -0.285464        -7.7679 
  37   2.0000      -0.284382        -7.7384 
  38   2.0000      -0.265704        -7.2302 
  39   2.0000      -0.264909        -7.2085 
  40   2.0000      -0.213133        -5.7996 
  41   0.0000      -0.060152        -1.6368 
  42   0.0000      -0.014101        -0.3837 
  43   0.0000       0.006636         0.1806 
  44   0.0000       0.031711         0.8629 
  45   0.0000       0.061803         1.6818 
  46   0.0000       0.080374         2.1871 
  47   0.0000       0.089741         2.4420 
  48   0.0000       0.115819         3.1516 
  49   0.0000       0.144505         3.9322 
  50   0.0000       0.159719         4.3462 
  51   0.0000       0.167050         4.5457 
*Only the first 10 virtual orbitals were printed.

                    ********************************
                    * MULLIKEN POPULATION ANALYSIS *
                    ********************************

-----------------------
MULLIKEN ATOMIC CHARGES
-----------------------
   0 O :   -0.265396
   1 O :   -0.266180
   2 N :    0.236783
   3 N :   -0.048736
   4 C :    0.158272
   5 C :    0.094807
   6 C :   -0.019947
   7 C :   -0.013485
   8 C :   -0.041832
   9 C :   -0.030112
  10 H :   -0.001326
  11 H :   -0.005128
  12 H :   -0.037543
  13 H :   -0.077627
  14 H :    0.109314
  15 H :    0.106090
  16 O :   -0.250964
  17 H :    0.176709
  18 H :    0.176299
Sum of atomic charges:   -0.0000000

--------------------------------
MULLIKEN REDUCED ORBITAL CHARGES
--------------------------------
  0 O s       :     3.856974  s :     3.856974
      pz      :     1.358311  p :     4.386674
      px      :     1.647685
      py      :     1.380678
      dz2     :     0.003977  d :     0.021748
      dxz     :     0.003885
      dyz     :     0.005176
      dx2y2   :     0.003483
      dxy     :     0.005226

  1 O s       :     3.856182  s :     3.856182
      pz      :     1.412087  p :     4.388219
      px      :     1.704770
      py      :     1.271362
      dz2     :     0.003461  d :     0.021779
      dxz     :     0.002810
      dyz     :     0.005707
      dx2y2   :     0.004719
      dxy     :     0.005083

  2 N s       :     3.292354  s :     3.292354
      pz      :     1.135003  p :     3.355882
      px      :     1.136516
      py      :     1.084362
      dz2     :     0.020686  d :     0.114982
      dxz     :     0.016155
      dyz     :     0.020234
      dx2y2   :     0.032741
      dxy     :     0.025165

  3 N s       :     3.276250  s :     3.276250
      pz      :     1.486550  p :     3.757407
      px      :     1.069452
      py      :     1.201405
      dz2     :     0.001302  d :     0.015079
      dxz     :     0.003544
      dyz     :     0.001503
      dx2y2   :     0.004163
      dxy     :     0.004567

  4 C s       :     2.996860  s :     2.996860
      pz      :     1.038687  p :     2.797064
      px      :     0.815227
      py      :     0.943150
      dz2     :     0.007831  d :     0.047804
      dxz     :     0.007172
      dyz     :     0.006314
      dx2y2   :     0.016646
      dxy     :     0.009840

  5 C s       :     2.976125  s :     2.976125
      pz      :     0.951342  p :     2.865718
      px      :     0.906289
      py      :     1.008087
      dz2     :     0.007785  d :     0.063349
      dxz     :     0.016848
      dyz     :     0.006033
      dx2y2   :     0.016492
      dxy     :     0.016191

  6 C s       :     3.277450  s :     3.277450
      pz      :     0.910318  p :     2.706852
      px      :     0.871838
      py      :     0.924696
      dz2     :     0.003807  d :     0.035644
      dxz     :     0.008756
      dyz     :     0.004478
      dx2y2   :     0.008411
      dxy     :     0.010192

  7 C s       :     3.273827  s :     3.273827
      pz      :     0.929821  p :     2.704006
      px      :     0.883064
      py      :     0.891121
      dz2     :     0.004599  d :     0.035652
      dxz     :     0.008727
      dyz     :     0.003967
      dx2y2   :     0.007420
      dxy     :     0.010939

  8 C s       :     3.232687  s :     3.232687
      pz      :     1.000542  p :     2.777073
      px      :     0.877574
      py      :     0.898957
      dz2     :     0.003486  d :     0.032071
      dxz     :     0.007373
      dyz     :     0.003925
      dx2y2   :     0.007417
      dxy     :     0.009870

  9 C s       :     3.231190  s :     3.231190
      pz      :     0.988955  p :     2.766883
      px      :     0.851587
      py      :     0.926340
      dz2     :     0.003146  d :     0.032039
      dxz     :     0.007305
      dyz     :     0.004084
      dx2y2   :     0.007663
      dxy     :     0.009841

 10 H s       :     0.977778  s :     0.977778
      pz      :     0.007233  p :     0.023547
      px      :     0.007970
      py      :     0.008344

 11 H s       :     0.981542  s :     0.981542
      pz      :     0.006192  p :     0.023586
      px      :     0.007034
      py      :     0.010360

 12 H s       :     1.014522  s :     1.014522
      pz      :     0.007058  p :     0.023021
      px      :     0.005413
      py      :     0.010550

 13 H s       :     1.054434  s :     1.054434
      pz      :     0.007839  p :     0.023193
      px      :     0.006804
      py      :     0.008549

 14 H s       :     0.845803  s :     0.845803
      pz      :     0.013716  p :     0.044883
      px      :     0.011289
      py      :     0.019878

 15 H s       :     0.845929  s :     0.845929
      pz      :     0.018153  p :     0.047981
      px      :     0.012346
      py      :     0.017482

 16 O s       :     3.676448  s :     3.676448
      pz      :     1.399693  p :     4.564786
      px      :     1.850086
      py      :     1.315007
      dz2     :     0.003929  d :     0.009730
      dxz     :     0.001848
      dyz     :     0.000195
      dx2y2   :     0.003240
      dxy     :     0.000517

 17 H s       :     0.753105  s :     0.753105
      pz      :     0.016946  p :     0.070186
      px      :     0.018682
      py      :     0.034558

 18 H s       :     0.753631  s :     0.753631
      pz      :     0.031735  p :     0.070070
      px      :     0.021561
      py      :     0.016773



                     *******************************
                     * LOEWDIN POPULATION ANALYSIS *
                     *******************************

----------------------
LOEWDIN ATOMIC CHARGES
----------------------
   0 O :   -0.230345
   1 O :   -0.230998
   2 N :    0.276842
   3 N :    0.001707
   4 C :   -0.068757
   5 C :    0.048779
   6 C :    0.007759
   7 C :    0.004424
   8 C :   -0.069475
   9 C :   -0.070247
  10 H :    0.038976
  11 H :    0.037064
  12 H :    0.024181
  13 H :    0.011340
  14 H :    0.074363
  15 H :    0.056206
  16 O :   -0.095085
  17 H :    0.091621
  18 H :    0.091644

-------------------------------
LOEWDIN REDUCED ORBITAL CHARGES
-------------------------------
  0 O s       :     3.622016  s :     3.622016
      pz      :     1.415432  p :     4.566558
      px      :     1.690858
      py      :     1.460268
      dz2     :     0.005622  d :     0.041772
      dxz     :     0.007989
      dyz     :     0.011528
      dx2y2   :     0.005413
      dxy     :     0.011220

  1 O s       :     3.621217  s :     3.621217
      pz      :     1.455710  p :     4.567931
      px      :     1.733435
      py      :     1.378786
      dz2     :     0.005250  d :     0.041850
      dxz     :     0.005259
      dyz     :     0.012292
      dx2y2   :     0.008022
      dxy     :     0.011027

  2 N s       :     3.049642  s :     3.049642
      pz      :     1.128218  p :     3.432280
      px      :     1.178447
      py      :     1.125615
      dz2     :     0.037195  d :     0.241235
      dxz     :     0.033317
      dyz     :     0.047042
      dx2y2   :     0.068906
      dxy     :     0.054775

  3 N s       :     3.022708  s :     3.022708
      pz      :     1.480637  p :     3.934149
      px      :     1.162001
      py      :     1.291512
      dz2     :     0.003182  d :     0.041436
      dxz     :     0.008832
      dyz     :     0.003698
      dx2y2   :     0.012211
      dxy     :     0.013511

  4 C s       :     2.856134  s :     2.856134
      pz      :     1.097943  p :     3.090154
      px      :     0.900572
      py      :     1.091639
      dz2     :     0.017535  d :     0.122469
      dxz     :     0.018226
      dyz     :     0.016478
      dx2y2   :     0.042693
      dxy     :     0.027537

  5 C s       :     2.837528  s :     2.837528
      pz      :     0.963089  p :     2.963633
      px      :     0.969688
      py      :     1.030855
      dz2     :     0.016988  d :     0.150060
      dxz     :     0.037787
      dyz     :     0.015109
      dx2y2   :     0.041174
      dxy     :     0.039003

  6 C s       :     2.862582  s :     2.862582
      pz      :     0.965627  p :     3.037317
      px      :     1.062194
      py      :     1.009496
      dz2     :     0.008813  d :     0.092342
      dxz     :     0.021126
      dyz     :     0.011149
      dx2y2   :     0.023811
      dxy     :     0.027442

  7 C s       :     2.862326  s :     2.862326
      pz      :     0.967686  p :     3.040668
      px      :     1.062904
      py      :     1.010078
      dz2     :     0.010565  d :     0.092582
      dxz     :     0.021625
      dyz     :     0.009907
      dx2y2   :     0.021661
      dxy     :     0.028825

  8 C s       :     2.857878  s :     2.857878
      pz      :     1.043319  p :     3.125663
      px      :     1.050511
      py      :     1.031833
      dz2     :     0.008031  d :     0.085934
      dxz     :     0.018885
      dyz     :     0.009929
      dx2y2   :     0.022159
      dxy     :     0.026929

  9 C s       :     2.857662  s :     2.857662
      pz      :     1.042637  p :     3.126610
      px      :     1.049476
      py      :     1.034497
      dz2     :     0.007442  d :     0.085975
      dxz     :     0.018191
      dyz     :     0.010357
      dx2y2   :     0.022492
      dxy     :     0.027494

 10 H s       :     0.890013  s :     0.890013
      pz      :     0.021742  p :     0.071011
      px      :     0.023954
      py      :     0.025315

 11 H s       :     0.891797  s :     0.891797
      pz      :     0.018839  p :     0.071139
      px      :     0.021442
      py      :     0.030858

 12 H s       :     0.907727  s :     0.907727
      pz      :     0.021261  p :     0.068092
      px      :     0.015988
      py      :     0.030843

 13 H s       :     0.918599  s :     0.918599
      pz      :     0.023808  p :     0.070061
      px      :     0.020377
      py      :     0.025875

 14 H s       :     0.802730  s :     0.802730
      pz      :     0.040015  p :     0.122908
      px      :     0.027212
      py      :     0.055680

 15 H s       :     0.800483  s :     0.800483
      pz      :     0.058367  p :     0.143311
      px      :     0.032267
      py      :     0.052677

 16 O s       :     3.419817  s :     3.419817
      pz      :     1.455675  p :     4.656708
      px      :     1.809948
      py      :     1.391085
      dz2     :     0.007994  d :     0.018560
      dxz     :     0.003444
      dyz     :     0.000164
      dx2y2   :     0.006781
      dxy     :     0.000177

 17 H s       :     0.733509  s :     0.733509
      pz      :     0.034038  p :     0.174870
      px      :     0.049587
      py      :     0.091245

 18 H s       :     0.733773  s :     0.733773
      pz      :     0.085558  p :     0.174583
      px      :     0.057914
      py      :     0.031111



                      *****************************
                      * MAYER POPULATION ANALYSIS *
                      *****************************

  NA   - Mulliken gross atomic population
  ZA   - Total nuclear charge
  QA   - Mulliken gross atomic charge
  VA   - Mayer's total valence
  BVA  - Mayer's bonded valence
  FA   - Mayer's free valence

  ATOM       NA         ZA         QA         VA         BVA        FA
  0 O      8.2654     8.0000    -0.2654     1.9412     1.9412    -0.0000
  1 O      8.2662     8.0000    -0.2662     1.9414     1.9414    -0.0000
  2 N      6.7632     7.0000     0.2368     3.9853     3.9853     0.0000
  3 N      7.0487     7.0000    -0.0487     3.2614     3.2614    -0.0000
  4 C      5.8417     6.0000     0.1583     3.7499     3.7499    -0.0000
  5 C      5.9052     6.0000     0.0948     4.0319     4.0319    -0.0000
  6 C      6.0199     6.0000    -0.0199     3.8529     3.8529    -0.0000
  7 C      6.0135     6.0000    -0.0135     3.8310     3.8310     0.0000
  8 C      6.0418     6.0000    -0.0418     3.7433     3.7433    -0.0000
  9 C      6.0301     6.0000    -0.0301     3.7192     3.7192    -0.0000
 10 H      1.0013     1.0000    -0.0013     1.0182     1.0182    -0.0000
 11 H      1.0051     1.0000    -0.0051     1.0194     1.0194    -0.0000
 12 H      1.0375     1.0000    -0.0375     0.9880     0.9880    -0.0000
 13 H      1.0776     1.0000    -0.0776     1.0424     1.0424    -0.0000
 14 H      0.8907     1.0000     0.1093     1.0007     1.0007    -0.0000
 15 H      0.8939     1.0000     0.1061     1.0774     1.0774     0.0000
 16 O      8.2510     8.0000    -0.2510     2.1624     2.1624     0.0000
 17 H      0.8233     1.0000     0.1767     1.0007     1.0007     0.0000
 18 H      0.8237     1.0000     0.1763     1.0010     1.0010     0.0000

  Mayer bond orders larger than 0.100000
B(  0-O ,  1-O ) :   0.2597 B(  0-O ,  2-N ) :   1.5262 B(  1-O ,  2-N ) :   1.5253 
B(  2-N ,  4-C ) :   0.8995 B(  3-N ,  5-C ) :   1.3372 B(  3-N , 14-H ) :   0.9437 
B(  3-N , 15-H ) :   0.8974 B(  4-C ,  6-C ) :   1.3356 B(  4-C ,  7-C ) :   1.3339 
B(  5-C ,  8-C ) :   1.2621 B(  5-C ,  9-C ) :   1.2646 B(  6-C ,  8-C ) :   1.4007 
B(  6-C , 10-H ) :   0.9816 B(  7-C ,  9-C ) :   1.3932 B(  7-C , 11-H ) :   0.9809 
B(  8-C , 12-H ) :   0.9866 B(  9-C , 13-H ) :   0.9741 B( 15-H , 16-O ) :   0.1263 
B( 16-O , 17-H ) :   0.9870 B( 16-O , 18-H ) :   0.9873 

-------
TIMINGS
-------

Total SCF time: 0 days 0 hours 0 min 6 sec 

Total time                  ....       6.728 sec
Sum of individual times     ....       6.549 sec  ( 97.3%)

SCF preparation             ....       0.811 sec  ( 12.1%)
Fock matrix formation       ....       4.821 sec  ( 71.7%)
  Startup                   ....       0.138 sec  (  2.9% of F)
  Split-RI-J                ....       0.447 sec  (  9.3% of F)
  Chain of spheres X        ....       2.427 sec  ( 50.3% of F)
  XC integration            ....       1.556 sec  ( 32.3% of F)
    XC Preparation          ....       0.000 sec  (  0.0% of XC)
    Basis function eval.    ....       0.206 sec  ( 13.2% of XC)
    Density eval.           ....       0.087 sec  (  5.6% of XC)
    XC-Functional eval.     ....       0.051 sec  (  3.3% of XC)
    XC-Potential eval.      ....       0.122 sec  (  7.8% of XC)
Diagonalization             ....       0.000 sec  (  0.0%)
Density matrix formation    ....       0.319 sec  (  4.7%)
Total Energy calculation    ....       0.104 sec  (  1.6%)
Population analysis         ....       0.048 sec  (  0.7%)
Orbital Transformation      ....       0.047 sec  (  0.7%)
Orbital Orthonormalization  ....       0.000 sec  (  0.0%)
DIIS solution               ....       0.225 sec  (  3.3%)
SOSCF solution              ....       0.174 sec  (  2.6%)
Finished LeanSCF after   6.8 sec

Maximum memory used throughout the entire LEANSCF-calculation: 19.9 MB


-------------------------------------------------------------------------------
                          DFT DISPERSION CORRECTION                            
                                                                               
                              DFTD3 V3.1  Rev 1                                
                          USING Becke-Johnson damping                          
-------------------------------------------------------------------------------
The B3LYP functional is recognized
Active option DFTDOPT                   ...         4   

molecular C6(AA) [au] = 3866.471710 


            DFT-D V3
 parameters
 s6 scaling factor         :     1.0000 
 a1 scaling factor         :     0.3981 
 s8 scaling factor         :     1.9889 
 a2 scaling factor         :     4.4211 
 ad hoc parameters k1-k3   :    16.0000     1.3333    -4.0000 

 Edisp/kcal,au: -19.855331927441  -0.031641482129 
 E6   /kcal   :  -9.385380824 
 E8   /kcal   : -10.469951104 
 % E8         :  52.731181439 

-------------------------   ----------------
Dispersion correction           -0.031641482
-------------------------   ----------------


-------------------------   --------------------
FINAL SINGLE POINT ENERGY      -567.855893800650
-------------------------   --------------------

--------------------------------------------------------------------------
By default, for Open MPI 4.0 and later, infiniband ports on a device
are not used by default.  The intent is to use UCX for these devices.
You can override this policy by setting the btl_openib_allow_ib MCA parameter
to true.

  Local host:              psid02
  Local adapter:           mlx5_0
  Local port:              1

--------------------------------------------------------------------------
--------------------------------------------------------------------------
WARNING: There was an error initializing an OpenFabrics device.

  Local host:   psid02
  Local device: mlx5_0
--------------------------------------------------------------------------


           ************************************************************
           *        Program running with 28 parallel MPI-processes    *
           *              working on a common directory               *
           ************************************************************
------------------------------------------------------------------------------
                         ORCA SCF GRADIENT CALCULATION
------------------------------------------------------------------------------

Nuc. rep. gradient        (SHARK) ... done (  0.0 sec)
HCore & Overlap gradient  (SHARK) ... done (  0.0 sec)
Split-RIJ-J gradient      (SHARK) ... done (  0.1 sec)
COSX-gradient                     ... done (  1.1 sec)
XC gradient                       ... done (  0.3 sec)
Dispersion correction             ... done (  0.0 sec)

-------------------
DISPERSION GRADIENT
-------------------

   1   O   :    0.000481839    0.000090268    0.000136321
   2   O   :    0.000465087   -0.000195610   -0.000063750
   3   N   :    0.000586913   -0.000065740    0.000045062
   4   N   :   -0.000519552    0.000219833    0.000115564
   5   C   :    0.000439515   -0.000045674    0.000039495
   6   C   :   -0.000361880    0.000156285    0.000086286
   7   C   :    0.000118287    0.000452745    0.000335376
   8   C   :    0.000112937   -0.000461475   -0.000291173
   9   C   :   -0.000171078    0.000469278    0.000307813
  10   C   :   -0.000019188   -0.000344979   -0.000189516
  11   H   :    0.000103597    0.000272254    0.000205005
  12   H   :    0.000084285   -0.000291660   -0.000186533
  13   H   :   -0.000092051    0.000290218    0.000189286
  14   H   :   -0.000012852   -0.000250357   -0.000146284
  15   H   :   -0.000268460    0.000149794    0.000055537
  16   H   :   -0.000266407    0.000019569   -0.000022101
  17   O   :   -0.000365373   -0.000217588   -0.000286520
  18   H   :   -0.000160979   -0.000159054   -0.000109612
  19   H   :   -0.000154639   -0.000088108   -0.000220258

Difference to translation invariance:
           :   -0.0000000000    0.0000000000   -0.0000000000

Difference to rotation invariance:
           :   -0.0000000000    0.0000000000    0.0000000000

Norm of the Dispersion gradient    ...    0.0019348125
RMS gradient                       ...    0.0002562722
MAX gradient                       ...    0.0005869128

------------------
CARTESIAN GRADIENT
------------------

   1   O   :    0.000181951    0.000400368    0.000410311
   2   O   :   -0.000096664    0.000441273    0.000384018
   3   N   :   -0.000100415   -0.001054253   -0.001076432
   4   N   :   -0.001105795    0.000433729   -0.000566825
   5   C   :   -0.000100446    0.000127920    0.000195476
   6   C   :   -0.000904853    0.000379324    0.000695057
   7   C   :    0.000692864   -0.000286251   -0.000153079
   8   C   :   -0.000289230    0.000388859   -0.000254701
   9   C   :    0.000528150   -0.000473900   -0.000213088
  10   C   :    0.000006307   -0.000269309    0.000078595
  11   H   :   -0.000481983    0.000324221    0.000161193
  12   H   :    0.000132474    0.000063182    0.000109923
  13   H   :    0.000106657    0.000028003    0.000141488
  14   H   :    0.000328911   -0.000214309    0.000090135
  15   H   :    0.000357984    0.000377683   -0.000225383
  16   H   :    0.000910945   -0.000989393    0.000362380
  17   O   :    0.000161162    0.000397052    0.000653976
  18   H   :   -0.000264655   -0.000476451   -0.000003317
  19   H   :   -0.000063363    0.000402252   -0.000789729

Difference to translation invariance:
           :    0.0000000001    0.0000000000    0.0000000001

Difference to rotation invariance:
           :    0.0000113845   -0.0000608693    0.0000303798

Norm of the Cartesian gradient     ...    0.0035071250
RMS gradient                       ...    0.0004645301
MAX gradient                       ...    0.0011057954

-------
TIMINGS
-------

Total SCF gradient time     ....        1.579 sec

Densities                   ....       0.001 sec  (  0.0%)
One electron gradient       ....       0.016 sec  (  1.0%)
RI-J Coulomb gradient       ....       0.135 sec  (  8.6%)
COSX gradient               ....       1.124 sec  ( 71.2%)
XC gradient                 ....       0.254 sec  ( 16.1%)

Maximum memory used throughout the entire SCFGRAD-calculation: 30.4 MB
[psid02:247395] 27 more processes have sent help message help-mpi-btl-openib.txt / ib port not selected
[psid02:247395] Set MCA parameter "orte_base_help_aggregate" to 0 to see all help / error messages
[psid02:247395] 27 more processes have sent help message help-mpi-btl-openib.txt / error in device init
------------------------------------------------------------------------------
                         ORCA GEOMETRY RELAXATION STEP
------------------------------------------------------------------------------

Reading the OPT-File                    .... done
Getting information on internals        .... done
Copying old internal coords+grads       .... done
Making the new internal coordinates     .... (2022 redundants) done
Validating the new internal coordinates .... (2022 redundants) done
Calculating the B-matrix                .... done
Calculating the G,G- and P matrices     .... done
Transforming gradient to internals      .... done
Projecting the internal gradient        .... done
Number of atoms                         ....  19
Number of internal coordinates          ....  83
Current Energy                          ....  -567.855893801 Eh
Current gradient norm                   ....     0.003507125 Eh/bohr
Maximum allowed component of the step   ....  0.300
Current trust radius                    ....  0.300
Evaluating the initial hessian          ....  (Almloef) done
Projecting the Hessian                  .... done
Forming the augmented Hessian           .... done
Diagonalizing the augmented Hessian     .... done
Last element of RFO vector              ....  0.983756150
Lowest eigenvalues of augmented Hessian:
 -0.000099476  0.001683749  0.015183650  0.015185561  0.015639663
Length of the computed step             ....  0.182474073
The final length of the internal step   ....  0.182474073
Converting the step to Cartesian space:
 Initial RMS(Int)=    0.0200291316
Transforming coordinates:
 Iter   0:  RMS(Cart)=    0.0360991354 RMS(Int)=    1.1931080819
 Iter   5:  RMS(Cart)=    0.0000004651 RMS(Int)=    0.0000003723
done
Storing new coordinates                 .... done

                                .--------------------.
          ----------------------|Geometry convergence|-------------------------
          Item                value                   Tolerance       Converged
          ---------------------------------------------------------------------
          RMS gradient        0.0002864309            0.0001000000      NO
          MAX gradient        0.0008187652            0.0003000000      NO
          RMS step            0.0200291316            0.0020000000      NO
          MAX step            0.1350250657            0.0040000000      NO
          ........................................................
          Max(Bonds)      0.0020      Max(Angles)    0.28
          Max(Dihed)        7.74      Max(Improp)    0.00
          ---------------------------------------------------------------------

The optimization has not yet converged - more geometry cycles are needed


[...]
      dxz     :     0.019658
      dyz     :     0.016850
      dx2y2   :     0.040600
      dxy     :     0.026438

  5 C s       :     2.837103  s :     2.837103
      pz      :     0.973837  p :     2.962965
      px      :     0.969015
      py      :     1.020112
      dz2     :     0.018373  d :     0.150324
      dxz     :     0.037383
      dyz     :     0.015640
      dx2y2   :     0.039914
      dxy     :     0.039014

  6 C s       :     2.862659  s :     2.862659
      pz      :     0.972407  p :     3.036875
      px      :     1.060747
      py      :     1.003721
      dz2     :     0.009319  d :     0.092292
      dxz     :     0.022150
      dyz     :     0.011354
      dx2y2   :     0.023217
      dxy     :     0.026251

  7 C s       :     2.862323  s :     2.862323
      pz      :     0.974262  p :     3.040023
      px      :     1.061360
      py      :     1.004402
      dz2     :     0.011645  d :     0.092610
      dxz     :     0.022436
      dyz     :     0.010331
      dx2y2   :     0.020643
      dxy     :     0.027555

  8 C s       :     2.857790  s :     2.857790
      pz      :     1.041637  p :     3.125405
      px      :     1.050481
      py      :     1.033288
      dz2     :     0.008747  d :     0.085907
      dxz     :     0.020134
      dyz     :     0.010428
      dx2y2   :     0.021068
      dxy     :     0.025530

  9 C s       :     2.857113  s :     2.857113
      pz      :     1.043438  p :     3.128565
      px      :     1.049491
      py      :     1.035637
      dz2     :     0.007957  d :     0.086121
      dxz     :     0.019523
      dyz     :     0.010795
      dx2y2   :     0.021595
      dxy     :     0.026252

 10 H s       :     0.889818  s :     0.889818
      pz      :     0.023382  p :     0.071124
      px      :     0.024120
      py      :     0.023622

 11 H s       :     0.891671  s :     0.891671
      pz      :     0.019574  p :     0.071117
      px      :     0.021334
      py      :     0.030209

 12 H s       :     0.907449  s :     0.907449
      pz      :     0.021809  p :     0.068128
      px      :     0.016035
      py      :     0.030284

 13 H s       :     0.921369  s :     0.921369
      pz      :     0.025031  p :     0.070371
      px      :     0.020704
      py      :     0.024636

 14 H s       :     0.802280  s :     0.802280
      pz      :     0.042657  p :     0.123043
      px      :     0.027505
      py      :     0.052881

 15 H s       :     0.800876  s :     0.800876
      pz      :     0.056057  p :     0.142551
      px      :     0.032593
      py      :     0.053901

 16 O s       :     3.421737  s :     3.421737
      pz      :     1.403333  p :     4.652440
      px      :     1.799106
      py      :     1.450000
      dz2     :     0.006566  d :     0.018714
      dxz     :     0.004069
      dyz     :     0.001575
      dx2y2   :     0.005559
      dxy     :     0.000945

 17 H s       :     0.733918  s :     0.733918
      pz      :     0.036833  p :     0.175513
      px      :     0.050504
      py      :     0.088175

 18 H s       :     0.733972  s :     0.733972
      pz      :     0.083652  p :     0.175546
      px      :     0.059004
      py      :     0.032890



                      *****************************
                      * MAYER POPULATION ANALYSIS *
                      *****************************

  NA   - Mulliken gross atomic population
  ZA   - Total nuclear charge
  QA   - Mulliken gross atomic charge
  VA   - Mayer's total valence
  BVA  - Mayer's bonded valence
  FA   - Mayer's free valence

  ATOM       NA         ZA         QA         VA         BVA        FA
  0 O      8.2643     8.0000    -0.2643     1.9426     1.9426     0.0000
  1 O      8.2667     8.0000    -0.2667     1.9406     1.9406     0.0000
  2 N      6.7631     7.0000     0.2369     3.9853     3.9853     0.0000
  3 N      7.0490     7.0000    -0.0490     3.2637     3.2637    -0.0000
  4 C      5.8436     6.0000     0.1564     3.7529     3.7529     0.0000
  5 C      5.9011     6.0000     0.0989     4.0326     4.0326     0.0000
  6 C      6.0182     6.0000    -0.0182     3.8522     3.8522     0.0000
  7 C      6.0124     6.0000    -0.0124     3.8306     3.8306    -0.0000
  8 C      6.0411     6.0000    -0.0411     3.7398     3.7398     0.0000
  9 C      6.0283     6.0000    -0.0283     3.7140     3.7140     0.0000
 10 H      1.0007     1.0000    -0.0007     1.0187     1.0187     0.0000
 11 H      1.0051     1.0000    -0.0051     1.0193     1.0193    -0.0000
 12 H      1.0370     1.0000    -0.0370     0.9882     0.9882     0.0000
 13 H      1.0916     1.0000    -0.0916     1.0495     1.0495     0.0000
 14 H      0.8907     1.0000     0.1093     1.0009     1.0009    -0.0000
 15 H      0.8947     1.0000     0.1053     1.0776     1.0776    -0.0000
 16 O      8.2480     8.0000    -0.2480     2.1724     2.1724    -0.0000
 17 H      0.8222     1.0000     0.1778     1.0007     1.0007    -0.0000
 18 H      0.8222     1.0000     0.1778     1.0007     1.0007    -0.0000

  Mayer bond orders larger than 0.100000
B(  0-O ,  1-O ) :   0.2597 B(  0-O ,  2-N ) :   1.5269 B(  1-O ,  2-N ) :   1.5246 
B(  2-N ,  4-C ) :   0.8994 B(  3-N ,  5-C ) :   1.3401 B(  3-N , 14-H ) :   0.9435 
B(  3-N , 15-H ) :   0.8971 B(  4-C ,  6-C ) :   1.3370 B(  4-C ,  7-C ) :   1.3342 
B(  5-C ,  8-C ) :   1.2603 B(  5-C ,  9-C ) :   1.2653 B(  6-C ,  8-C ) :   1.4002 
B(  6-C , 10-H ) :   0.9808 B(  7-C ,  9-C ) :   1.3920 B(  7-C , 11-H ) :   0.9812 
B(  8-C , 12-H ) :   0.9869 B(  9-C , 13-H ) :   0.9699 B( 15-H , 16-O ) :   0.1279 
B( 16-O , 17-H ) :   0.9870 B( 16-O , 18-H ) :   0.9869 

-------
TIMINGS
-------

Total SCF time: 0 days 0 hours 0 min 2 sec 

Total time                  ....       2.992 sec
Sum of individual times     ....       2.868 sec  ( 95.8%)

SCF preparation             ....       0.828 sec  ( 27.7%)
Fock matrix formation       ....       1.708 sec  ( 57.1%)
  Startup                   ....       0.053 sec  (  3.1% of F)
  Split-RI-J                ....       0.126 sec  (  7.4% of F)
  Chain of spheres X        ....       1.078 sec  ( 63.1% of F)
  XC integration            ....       0.387 sec  ( 22.7% of F)
    XC Preparation          ....       0.000 sec  (  0.0% of XC)
    Basis function eval.    ....       0.047 sec  ( 12.1% of XC)
    Density eval.           ....       0.022 sec  (  5.6% of XC)
    XC-Functional eval.     ....       0.013 sec  (  3.3% of XC)
    XC-Potential eval.      ....       0.030 sec  (  7.8% of XC)
Diagonalization             ....       0.000 sec  (  0.0%)
Density matrix formation    ....       0.064 sec  (  2.1%)
Total Energy calculation    ....       0.025 sec  (  0.8%)
Population analysis         ....       0.125 sec  (  4.2%)
Orbital Transformation      ....       0.015 sec  (  0.5%)
Orbital Orthonormalization  ....       0.000 sec  (  0.0%)
DIIS solution               ....       0.028 sec  (  1.0%)
SOSCF solution              ....       0.076 sec  (  2.5%)
Finished LeanSCF after   3.1 sec

Maximum memory used throughout the entire LEANSCF-calculation: 23.6 MB
[psid02:263601] 27 more processes have sent help message help-mpi-btl-openib.txt / ib port not selected
[psid02:263601] Set MCA parameter "orte_base_help_aggregate" to 0 to see all help / error messages
[psid02:263601] 27 more processes have sent help message help-mpi-btl-openib.txt / error in device init


-------------------------------------------------------------------------------
                          DFT DISPERSION CORRECTION                            
                                                                               
                              DFTD3 V3.1  Rev 1                                
                          USING Becke-Johnson damping                          
-------------------------------------------------------------------------------
The B3LYP functional is recognized
Active option DFTDOPT                   ...         4   

molecular C6(AA) [au] = 3866.455094 


            DFT-D V3
 parameters
 s6 scaling factor         :     1.0000 
 a1 scaling factor         :     0.3981 
 s8 scaling factor         :     1.9889 
 a2 scaling factor         :     4.4211 
 ad hoc parameters k1-k3   :    16.0000     1.3333    -4.0000 

 Edisp/kcal,au: -19.917673949872  -0.031740830455 
 E6   /kcal   :  -9.416949677 
 E8   /kcal   : -10.500724273 
 % E8         :  52.720635447 

-------------------------   ----------------
Dispersion correction           -0.031740830
-------------------------   ----------------


-------------------------   --------------------
FINAL SINGLE POINT ENERGY      -567.856141948010
-------------------------   --------------------

                                *** OPTIMIZATION RUN DONE ***

--------------------------------------------------------------------------
By default, for Open MPI 4.0 and later, infiniband ports on a device
are not used by default.  The intent is to use UCX for these devices.
You can override this policy by setting the btl_openib_allow_ib MCA parameter
to true.

  Local host:              psid02
  Local adapter:           mlx5_0
  Local port:              1

--------------------------------------------------------------------------
--------------------------------------------------------------------------
WARNING: There was an error initializing an OpenFabrics device.

  Local host:   psid02
  Local device: mlx5_0
--------------------------------------------------------------------------
[psid02:263692] [[26163,0],0] ORTE_ERROR_LOG: Data unpack would read past end of buffer in file util/show_help.c at line 513


           ************************************************************
           *        Program running with 28 parallel MPI-processes    *
           *              working on a common directory               *
           ************************************************************

------------------------------------------------------------------------------
                              ORCA PROPERTY CALCULATIONS
------------------------------------------------------------------------------

GBWName                                 ... 4nitroaniline_water_2_OPT.gbw
Number of atoms                         ...     19
Number of basis functions               ...    194
Max core memory                         ...   4000 MB

Electric properties:
Dipole moment                           ... YES
Quadrupole moment                       ...  NO
Static polarizability (Dipole/Dipole)   ...  NO
Static polarizability (Dipole/Quad.)    ...  NO
Static polarizability (Quad./Quad.)     ...  NO
Static polarizability (Velocity)        ...  NO

Atomic electric properties:
Dipole moment                           ...  NO
Quadrupole moment                       ...  NO
Static polarizability                   ...  NO

Choice of electric origin               ... Center of mass
Position of electric origin             ...    -0.676227     0.073888    -0.453893

General magnetic properties:
Magnetizability                         ...  NO

EPR properties:
g-Tensor (aka g-matrix)                 ...  NO
Zero-Field splitting spin-orbit         ...  NO
Zero-field splitting spin-spin          ...  NO
Hyperfine couplings                     ...  NO (   0 nuclei)
Quadrupole couplings                    ...  NO (   0 nuclei)
Contact density                         ...  NO (   0 nuclei)

NMR properties:
Chemical shifts                         ...  NO (   0 nuclei)
Spin-rotation constants                 ...  NO (   0 nuclei)
Spin-spin couplings                     ...  NO (   0 nuclei,    0 pairs)

Choice of magnetic origin               ... GIAO
Position of magnetic origin             ...     0.000000     0.000000     0.000000

Properties with geometric perturbations:
SCF Hessian                             ...  NO
IR spectrum                             ...  NO
VCD spectrum                            ...  NO
X-ray spectroscopy properties:
SCF XES/XAS/RIXS spectra                ...  NO


-------------
DIPOLE MOMENT
-------------

Method             : SCF
Type of density    : Electron Density
Multiplicity       :   1
Irrep              :   0
Energy             :  -567.8244011175552259 Eh
Relativity type    : 
Basis              : AO
                                X                 Y                 Z
Electronic contribution:     11.269335279       0.677178919       2.832356942
Nuclear contribution   :    -14.343457987      -1.023554939      -3.734100849
                        -----------------------------------------
Total Dipole Moment    :     -3.074122709      -0.346376019      -0.901743907
                        -----------------------------------------
Magnitude (a.u.)       :      3.222320414
Magnitude (Debye)      :      8.190487583



--------------------
Rotational spectrum 
--------------------
 
Rotational constants in cm-1:             0.083390             0.016940             0.014108 
Rotational constants in MHz :          2499.978267           507.850587           422.938427 

Dipole components along the rotational axes: 
x,y,z [a.u.] :     3.220099     0.119580     0.003766 
x,y,z [Debye]:     8.184840     0.303949     0.009572 

 

Dipole moment calculation done in   0.0 sec 

Maximum memory used throughout the entire PROP-calculation: 12.7 MB
[psid02:263692] 26 more processes have sent help message help-mpi-btl-openib.txt / ib port not selected
[psid02:263692] Set MCA parameter "orte_base_help_aggregate" to 0 to see all help / error messages
[psid02:263692] 27 more processes have sent help message help-mpi-btl-openib.txt / error in device init
--------------------------------------------------------------------------
By default, for Open MPI 4.0 and later, infiniband ports on a device
are not used by default.  The intent is to use UCX for these devices.
You can override this policy by setting the btl_openib_allow_ib MCA parameter
to true.

  Local host:              psid02
  Local adapter:           mlx5_0
  Local port:              1

--------------------------------------------------------------------------
--------------------------------------------------------------------------
WARNING: There was an error initializing an OpenFabrics device.

  Local host:   psid02
  Local device: mlx5_0
--------------------------------------------------------------------------
[psid02:263781] 27 more processes have sent help message help-mpi-btl-openib.txt / ib port not selected
[psid02:263781] Set MCA parameter "orte_base_help_aggregate" to 0 to see all help / error messages
[psid02:263781] 27 more processes have sent help message help-mpi-btl-openib.txt / error in device init

--------------------------------
SUGGESTED CITATIONS FOR THIS RUN
--------------------------------

Below you find a list of papers that are relevant to this ORCA run
We neither can nor want to force you to cite these papers, but we appreciate if you do
You receive ORCA, which is the product of decades of hard work by many enthusiastic individuals, for free
The only thing we kindly ask in return is that you cite our papers,
We deeply appreciate it, if you show your appreciation for ORCA by not just citing the generic ORCA reference.

Please note that relegating all ORCA citations to the supporting information does *not* help us.
SI sections are not indexed - citations you put there will not count into any citation statistics
But we need these citations in order to attract the funding resources that allow us to do what we are doing

Therefore, if you are a happy ORCA user, please consider citing a few of the papers listed below in the main body of your paper

In addition to the list printed below, the program has created the file 4nitroaniline_water_2_OPT.bibtex that contains the list in bibtex format
You can import this file easily into all common literature databanks and citation aid programs


List of essential papers. We consider these as the minimum necessary citations

  1. Neese,F.
     Software update: the ORCA program system, version 5.0
     WIRES Comput. Molec. Sci., 2022 12(1)e1606
     doi.org/10.1002/wcms.1606

List of papers to cite with high priority. The work reported in these papers was absolutely
necessary for this run to complete.
Our perspective: the developers of density functionals and basis sets usually get cited in chemistry papers
Good! But without the algorithms to do something with them, the functionals or basis sets would not do anything.
Hence, in our opinion, the algorithm design and method developments papers are equally worthy of getting cited

  1. Neese,F.
     An improvement of the resolution of the identity approximation for the formation of the Coulomb matrix
     J. Comp. Chem., 2003 24(14)1740-1747
     doi.org/10.1002/jcc.10318
  2. Neese,F.; Wennmohs,F.; Hansen,A.; Becker,U.
     Efficient, approximate and parallel Hartree-Fock and hybrid DFT calculations. A 'chain-of-spheres' algorithm for the Hartree-Fock exchange
     Chem. Phys., 2009 356(1-3)98-109
     doi.org/10.1016/j.chemphys.2008.10.036
  3. Helmich-Paris,B.; de Souza,B.; Neese,F.; Izsák,R.
     An improved chain of spheres for exchange algorithm
     J. Chem. Phys., 2021 155 104109
     doi.org/doi: 10.1063/5.0058766.
  4. Neese,F.
     The SHARK Integral Generation and Digestion System
     J. Comp. Chem., 2022  1-16
     doi.org/10.1002/jcc.26942
  5. Grimme,S.; Antony,J.; Ehrlich,S.; Krieg,H.
     A consistent and accurate ab initio parametrization of density functional dispersion correction (DFT-D) for the 94 elements H-Pu
     J. Chem. Phys., 2010 132 154104
     doi.org/10.1063/1.3382344
  6. Grimme,S.; Ehrlich,S.; Goerigk,L.
     Effect of the damping function in dispersion corrected density functional theory
     J. Comput. Chem., 2011 32(7)1456-1465
     doi.org/10.1002/jcc.21759

List of suggested additional citations. These are papers that are important in the 'surrounding' of 
of this run, or papers that preceded the highly important papers. If you like your results we are grateful for a citation.

  1. Izsak,R.; Neese,F.
     An overlap fitted chain of spheres exchange method
     J. Chem. Phys., 2011 135 144105
     doi.org/10.1063/1.3646921
  2. Izsak,R.; Hansen,A.; Neese,F.
     The resolution of identity and chain of spheres approximations for the LPNO-CCSD singles Fock term
     Molec. Phys., 2012 110 2413-2417
     doi.org/10.1080/00268976.2012.687466
  3. Neese,F.
     The ORCA program system
     WIRES Comput. Molec. Sci., 2012 2(1)73-78
     doi.org/10.1002/wcms.81
  4. Izsak,R.; Neese,F.; Klopper,W.
     Robust fitting techniques in the chain of spheres approximation to the Fock exchange: The role of the complementary space
     J. Chem. Phys., 2013 139 
     doi.org/10.1063/1.4819264
  5. Neese,F.
     Software update: the ORCA program system, version 4.0
     WIRES Comput. Molec. Sci., 2018 8(1)1-6
     doi.org/10.1002/wcms.1327
  6. Neese,F.; Wennmohs,F.; Becker,U.; Riplinger,C.
     The ORCA quantum chemistry program package
     J. Chem. Phys., 2020 152 Art. No. L224108
     doi.org/10.1063/5.0004608

List of optional additional citations

  1. Neese,F.
     Approximate second-order SCF convergence for spin unrestricted wavefunctions
     Chem. Phys. Lett., 2000 325(1-3)93-98
     doi.org/10.1016/s0009-2614(00)00662-x

Timings for individual modules:

Sum of individual times          ...      342.988 sec (=   5.716 min)
Startup calculation              ...       65.704 sec (=   1.095 min)  19.2 %
SCF iterations                   ...      189.487 sec (=   3.158 min)  55.2 %
Property calculations            ...        0.872 sec (=   0.015 min)   0.3 %
SCF Gradient evaluation          ...       86.590 sec (=   1.443 min)  25.2 %
Geometry relaxation              ...        0.335 sec (=   0.006 min)   0.1 %
                             ****ORCA TERMINATED NORMALLY****
TOTAL RUN TIME: 0 days 0 hours 6 minutes 31 seconds 788 msec
