--------------------------------------------------------------------------
By default, for Open MPI 4.0 and later, infiniband ports on a device
are not used by default.  The intent is to use UCX for these devices.
You can override this policy by setting the btl_openib_allow_ib MCA parameter
to true.

  Local host:              psid10
  Local adapter:           mlx4_0
  Local port:              1

--------------------------------------------------------------------------
--------------------------------------------------------------------------
WARNING: There was an error initializing an OpenFabrics device.

  Local host:   psid10
  Local device: mlx4_0
--------------------------------------------------------------------------

     Program PWSCF v.7.3.1 starts on 11Feb2025 at 20:33:56 

     This program is part of the open-source Quantum ESPRESSO suite
     for quantum simulation of materials; please cite
         "P. Giannozzi et al., J. Phys.:Condens. Matter 21 395502 (2009);
         "P. Giannozzi et al., J. Phys.:Condens. Matter 29 465901 (2017);
         "P. Giannozzi et al., J. Chem. Phys. 152 154105 (2020);
          URL http://www.quantum-espresso.org", 
     in publications or presentations arising from this work. More details at
     http://www.quantum-espresso.org/quote

     Parallel version (MPI), running on    32 processors

     MPI processes distributed on     1 nodes
     149414 MiB available memory on the printing compute node when the environment starts

     Waiting for input...
     Reading input from standard input
Warning: card &CELL ignored
Warning: card / ignored

     Current dimensions of program PWSCF are:
     Max number of different atomic species (ntypx) = 10
     Max number of k-points (npk) =  40000
     Max angular momentum in pseudopotentials (lmaxx) =  4
     file O.pbe-n-kjpaw_psl.0.1.UPF: wavefunction(s)  2P renormalized

     gamma-point specific algorithms are used

     R & G space division:  proc/nbgrp/npool/nimage =      32
     Subspace diagonalization in iterative solution of the eigenvalue problem:
     one sub-group per band group will be used
     custom distributed-memory algorithm (size of sub-group:  5*  5 procs)


     Parallelization info
     --------------------
     sticks:   dense  smooth     PW     G-vecs:    dense   smooth      PW
     Min         617     246     61               129156    32666    4080
     Max         620     248     62               129176    32694    4090
     Sum       19777    7901   1983              4133441  1045681  130765

     Using Slab Decomposition



     bravais-lattice index     =           14
     lattice parameter (alat)  =      27.0138  a.u.
     unit-cell volume          =   21892.5290 (a.u.)^3
     number of atoms/cell      =           67
     number of atomic types    =            3
     number of electrons       =      1288.00
     number of Kohn-Sham states=          773
     kinetic-energy cutoff     =      50.0000  Ry
     charge density cutoff     =     500.0000  Ry
     scf convergence threshold =      1.0E-06
     mixing beta               =       0.7000
     number of iterations used =            8  plain     mixing
     energy convergence thresh.=      1.0E-04
     force convergence thresh. =      1.0E-03
     Exchange-correlation= PBE
                           (   1   4   3   4   0   0   0)
     nstep                     =          100


     celldm(1)=  27.013824  celldm(2)=   0.731537  celldm(3)=   1.757301
     celldm(4)=  -0.365770  celldm(5)=  -0.070307  celldm(6)=   0.365770

     crystal axes: (cart. coord. in units of alat)
               a(1) = (   1.000000   0.000000   0.000000 )  
               a(2) = (   0.267574   0.680846   0.000000 )  
               a(3) = (  -0.123550  -0.642069   1.631132 )  

     reciprocal axes: (cart. coord. in units 2 pi/alat)
               b(1) = (  1.000000 -0.393003 -0.078955 )  
               b(2) = ( -0.000000  1.468762  0.578155 )  
               b(3) = (  0.000000  0.000000  0.613071 )  


     PseudoPot. # 1 for Zn read from file:
     /home/ys/qe-7.3.1/pseudo/Standard_solid-state_pseudopotentials_SSSP_1.3.0_PBE_efficiency/Zn_pbe_v1.uspp.F.UPF
     MD5 check sum: df62231357ef9e81f77b2b3087fa5675
     Pseudo is Ultrasoft, Zval = 20.0
     Generated by new atomic code, or converted to UPF format
     Using radial grid of  943 points,  6 beta functions with: 
                l(1) =   0
                l(2) =   0
                l(3) =   1
                l(4) =   1
                l(5) =   2
                l(6) =   2
     Q(r) pseudized with  8 coefficients,  rinner =    1.100   1.100   1.100
                                                       1.100   1.100

     PseudoPot. # 2 for O  read from file:
     /home/ys/qe-7.3.1/pseudo/Standard_solid-state_pseudopotentials_SSSP_1.3.0_PBE_efficiency/O.pbe-n-kjpaw_psl.0.1.UPF
     MD5 check sum: 0234752ac141de4415c5fc33072bef88
     Pseudo is Projector augmented-wave + core cor, Zval =  6.0
     Generated using "atomic" code by A. Dal Corso  v.5.0.99 svn rev. 10869
     Shape of augmentation charge: BESSEL
     Using radial grid of 1095 points,  4 beta functions with: 
                l(1) =   0
                l(2) =   0
                l(3) =   1
                l(4) =   1
     Q(r) pseudized with 0 coefficients 


     PseudoPot. # 3 for H  read from file:
     /home/ys/qe-7.3.1/pseudo/Standard_solid-state_pseudopotentials_SSSP_1.3.0_PBE_efficiency/H.pbe-rrkjus_psl.1.0.0.UPF
     MD5 check sum: f52b6d4d1c606e5624b1dc7b2218f220
     Pseudo is Ultrasoft, Zval =  1.0
     Generated using "atomic" code by A. Dal Corso  v.5.1
     Using radial grid of  929 points,  2 beta functions with: 
                l(1) =   0
                l(2) =   0
     Q(r) pseudized with 0 coefficients 


     atomic species   valence    mass     pseudopotential
     Zn               20.00    65.39000     Zn( 1.00)
     O                 6.00    15.99940     O ( 1.00)
     H                 1.00     1.00794     H ( 1.00)

     No symmetry found



   Cartesian axes

     site n.     atom                  positions (alat units)
         1        Zn     tau(   1) = (   0.1250000   0.0491254   0.0193370  )
         2        Zn     tau(   2) = (   0.1918940   0.2193373   0.0193370  )
         3        Zn     tau(   3) = (   0.2587883   0.3895500   0.0193370  )
         4        Zn     tau(   4) = (   0.3256821   0.5597613   0.0193370  )
         5        Zn     tau(   5) = (   0.3749993   0.0491254   0.0193370  )
         6        Zn     tau(   6) = (   0.4418933   0.2193373   0.0193370  )
         7        Zn     tau(   7) = (   0.5087876   0.3895500   0.0193370  )
         8        Zn     tau(   8) = (   0.5756814   0.5597613   0.0193370  )
         9        Zn     tau(   9) = (   0.6249986   0.0491254   0.0193370  )
        10        Zn     tau(  10) = (   0.6918927   0.2193373   0.0193370  )
        11        Zn     tau(  11) = (   0.7587870   0.3895500   0.0193370  )
        12        Zn     tau(  12) = (   0.8256808   0.5597613   0.0193370  )
        13        Zn     tau(  13) = (   0.8749979   0.0491254   0.0193370  )
        14        Zn     tau(  14) = (   0.9418920   0.2193373   0.0193370  )
        15        Zn     tau(  15) = (   1.0087863   0.3895500   0.0193370  )
        16        Zn     tau(  16) = (   1.0756801   0.5597613   0.0193370  )
        17        Zn     tau(  17) = (   0.1743167   0.0297438   0.2127125  )
        18        Zn     tau(  18) = (   0.2412107   0.1999557   0.2127125  )
        19        Zn     tau(  19) = (   0.3081047   0.3701677   0.2127125  )
        20        Zn     tau(  20) = (   0.3749988   0.5403797   0.2127125  )
        21        Zn     tau(  21) = (   0.4243160   0.0297438   0.2127125  )
        22        Zn     tau(  22) = (   0.4912100   0.1999557   0.2127125  )
        23        Zn     tau(  23) = (   0.5581040   0.3701677   0.2127125  )
        24        Zn     tau(  24) = (   0.6249981   0.5403797   0.2127125  )
        25        Zn     tau(  25) = (   0.6743153   0.0297438   0.2127125  )
        26        Zn     tau(  26) = (   0.7412094   0.1999557   0.2127125  )
        27        Zn     tau(  27) = (   0.8081034   0.3701677   0.2127125  )
        28        Zn     tau(  28) = (   0.8749974   0.5403797   0.2127125  )
        29        Zn     tau(  29) = (   0.9243146   0.0297438   0.2127125  )
        30        Zn     tau(  30) = (   0.9912087   0.1999557   0.2127125  )
        31        Zn     tau(  31) = (   1.0581027   0.3701677   0.2127125  )
        32        Zn     tau(  32) = (   1.1249967   0.5403797   0.2127125  )
        33        Zn     tau(  33) = (   0.2412112   0.0034536   0.1353626  )
        34        Zn     tau(  34) = (   0.3081052   0.1736656   0.1353626  )
        35        Zn     tau(  35) = (   0.3749990   0.3438769   0.1353626  )
        36        Zn     tau(  36) = (   0.4418933   0.5140895   0.1353626  )
        37        Zn     tau(  37) = (   0.4912105   0.0034536   0.1353626  )
        38        Zn     tau(  38) = (   0.5581045   0.1736656   0.1353626  )
        39        Zn     tau(  39) = (   0.6249983   0.3438769   0.1353626  )
        40        Zn     tau(  40) = (   0.6918926   0.5140895   0.1353626  )
        41        Zn     tau(  41) = (   0.7412099   0.0034536   0.1353626  )
        42        Zn     tau(  42) = (   0.8081039   0.1736656   0.1353626  )
        43        Zn     tau(  43) = (   0.8749977   0.3438769   0.1353626  )
        44        Zn     tau(  44) = (   0.9418920   0.5140895   0.1353626  )
        45        Zn     tau(  45) = (   0.9912092   0.0034536   0.1353626  )
        46        Zn     tau(  46) = (   1.0581032   0.1736656   0.1353626  )
        47        Zn     tau(  47) = (   1.1249970   0.3438769   0.1353626  )
        48        Zn     tau(  48) = (   1.1918913   0.5140895   0.1353626  )
        49        Zn     tau(  49) = (   0.0581054   0.0754155   0.0966869  )
        50        Zn     tau(  50) = (   0.1249995   0.2456275   0.0966869  )
        51        Zn     tau(  51) = (   0.1918935   0.4158395   0.0966869  )
        52        Zn     tau(  52) = (   0.2587876   0.5860514   0.0966869  )
        53        Zn     tau(  53) = (   0.3081047   0.0754155   0.0966869  )
        54        Zn     tau(  54) = (   0.3749988   0.2456275   0.0966869  )
        55        Zn     tau(  55) = (   0.4418928   0.4158395   0.0966869  )
        56        Zn     tau(  56) = (   0.5087869   0.5860514   0.0966869  )
        57        Zn     tau(  57) = (   0.5581041   0.0754155   0.0966869  )
        58        Zn     tau(  58) = (   0.6249981   0.2456275   0.0966869  )
        59        Zn     tau(  59) = (   0.6918922   0.4158395   0.0966869  )
        60        Zn     tau(  60) = (   0.7587862   0.5860514   0.0966869  )
        61        Zn     tau(  61) = (   0.8081034   0.0754155   0.0966869  )
        62        Zn     tau(  62) = (   0.8749974   0.2456275   0.0966869  )
        63        Zn     tau(  63) = (   0.9418915   0.4158395   0.0966869  )
        64        Zn     tau(  64) = (   1.0087855   0.5860514   0.0966869  )
        65        O      tau(  65) = (   0.6314797   0.2241080   0.3076166  )
        66        H      tau(  66) = (   0.6914160   0.1925188   0.3037296  )
        67        H      tau(  67) = (   0.6108260   0.2129437   0.3712959  )

     number of k points=     1  Gaussian smearing, width (Ry)=  0.0100
                       cart. coord. in units 2pi/alat
        k(    1) = (   0.0000000   0.0000000   0.0000000), wk =   2.0000000

     Dense  grid:  2066721 G-vectors     FFT dimensions: ( 200, 144, 360)

     Smooth grid:   522841 G-vectors     FFT dimensions: ( 125,  90, 216)

     Estimated max dynamical RAM per process >     491.18 MB

     Estimated total dynamical RAM >      15.35 GB

     Initial potential from superposition of free atoms

     starting charge    1287.9910, renormalised to    1288.0000

     negative rho (up, down):  2.643E-03 0.000E+00
     Starting wfcs are  838 randomized atomic wfcs
[psid10:210362] 31 more processes have sent help message help-mpi-btl-openib.txt / ib port not selected
[psid10:210362] Set MCA parameter "orte_base_help_aggregate" to 0 to see all help / error messages
[psid10:210362] 31 more processes have sent help message help-mpi-btl-openib.txt / error in device init
     Checking if some PAW data can be deallocated... 

     total cpu time spent up to now is       25.1 secs

     Self-consistent Calculation

     iteration #  1     ecut=    50.00 Ry     beta= 0.70
     Davidson diagonalization with overlap
     ethr =  1.00E-02,  avg # of iterations =  8.0

     Threshold (ethr) on eigenvalues was too large:
     Diagonalizing with lowered threshold

     Davidson diagonalization with overlap
     ethr =  1.14E-04,  avg # of iterations = 12.0

     negative rho (up, down):  1.303E-03 0.000E+00

     total cpu time spent up to now is      219.4 secs

     total energy              =  -29529.34213812 Ry
     estimated scf accuracy    <       1.52049386 Ry

     iteration #  2     ecut=    50.00 Ry     beta= 0.70
     Davidson diagonalization with overlap
     ethr =  1.18E-04,  avg # of iterations =  7.0

     negative rho (up, down):  2.126E-03 0.000E+00

     total cpu time spent up to now is      313.1 secs

     total energy              =  -29529.17879100 Ry
     estimated scf accuracy    <       2.46502388 Ry

     iteration #  3     ecut=    50.00 Ry     beta= 0.70
     Davidson diagonalization with overlap
     ethr =  1.18E-04,  avg # of iterations =  6.0

     negative rho (up, down):  2.414E-03 0.000E+00

     total cpu time spent up to now is      404.5 secs

     total energy              =  -29529.36248272 Ry
     estimated scf accuracy    <       3.99812024 Ry

     iteration #  4     ecut=    50.00 Ry     beta= 0.70
     Davidson diagonalization with overlap
     ethr =  1.18E-04,  avg # of iterations =  5.0

     negative rho (up, down):  2.452E-03 0.000E+00

     total cpu time spent up to now is      483.7 secs

     total energy              =  -29529.72216321 Ry
     estimated scf accuracy    <       1.03566216 Ry

     iteration #  5     ecut=    50.00 Ry     beta= 0.70
     Davidson diagonalization with overlap
     ethr =  8.04E-05,  avg # of iterations =  3.0

     negative rho (up, down):  2.493E-03 0.000E+00

     total cpu time spent up to now is      560.0 secs

     total energy              =  -29529.78345397 Ry
     estimated scf accuracy    <       0.49350618 Ry

     iteration #  6     ecut=    50.00 Ry     beta= 0.70
     Davidson diagonalization with overlap
     ethr =  3.83E-05,  avg # of iterations = 10.0

     negative rho (up, down):  2.497E-03 0.000E+00

     total cpu time spent up to now is      637.6 secs

     total energy              =  -29529.82389036 Ry
     estimated scf accuracy    <       0.22185355 Ry

     iteration #  7     ecut=    50.00 Ry     beta= 0.70
     Davidson diagonalization with overlap
     ethr =  1.72E-05,  avg # of iterations =  2.0

     negative rho (up, down):  2.497E-03 0.000E+00

     total cpu time spent up to now is      711.2 secs

     total energy              =  -29529.84450572 Ry
     estimated scf accuracy    <       0.02741870 Ry

     iteration #  8     ecut=    50.00 Ry     beta= 0.70
     Davidson diagonalization with overlap
     ethr =  2.13E-06,  avg # of iterations =  7.0

     negative rho (up, down):  2.500E-03 0.000E+00

     total cpu time spent up to now is      789.0 secs

     total energy              =  -29529.84706801 Ry
     estimated scf accuracy    <       0.00986510 Ry

     iteration #  9     ecut=    50.00 Ry     beta= 0.70
     Davidson diagonalization with overlap
     ethr =  7.66E-07,  avg # of iterations =  6.0

     negative rho (up, down):  2.503E-03 0.000E+00

     total cpu time spent up to now is      863.9 secs

     total energy              =  -29529.84767851 Ry
     estimated scf accuracy    <       0.00917188 Ry

     iteration # 10     ecut=    50.00 Ry     beta= 0.70
     Davidson diagonalization with overlap
     ethr =  7.12E-07,  avg # of iterations =  3.0

     negative rho (up, down):  2.506E-03 0.000E+00

     total cpu time spent up to now is      936.6 secs

     total energy              =  -29529.84853488 Ry
     estimated scf accuracy    <       0.00148446 Ry

     iteration # 11     ecut=    50.00 Ry     beta= 0.70
     Davidson diagonalization with overlap
     ethr =  1.15E-07,  avg # of iterations =  2.0

     negative rho (up, down):  2.506E-03 0.000E+00

     total cpu time spent up to now is     1009.8 secs

     total energy              =  -29529.84866466 Ry
     estimated scf accuracy    <       0.00036155 Ry

     iteration # 12     ecut=    50.00 Ry     beta= 0.70
     Davidson diagonalization with overlap
     ethr =  2.81E-08,  avg # of iterations =  2.0

     negative rho (up, down):  2.507E-03 0.000E+00

     total cpu time spent up to now is     1082.9 secs

     total energy              =  -29529.84869531 Ry
     estimated scf accuracy    <       0.00044485 Ry

     iteration # 13     ecut=    50.00 Ry     beta= 0.70
     Davidson diagonalization with overlap
     ethr =  2.81E-08,  avg # of iterations =  2.0

     negative rho (up, down):  2.507E-03 0.000E+00

     total cpu time spent up to now is     1155.6 secs

     total energy              =  -29529.84872946 Ry
     estimated scf accuracy    <       0.00008540 Ry

     iteration # 14     ecut=    50.00 Ry     beta= 0.70
     Davidson diagonalization with overlap
     ethr =  6.63E-09,  avg # of iterations =  2.0

     negative rho (up, down):  2.507E-03 0.000E+00

     total cpu time spent up to now is     1228.6 secs

     total energy              =  -29529.84873337 Ry
     estimated scf accuracy    <       0.00007990 Ry

     iteration # 15     ecut=    50.00 Ry     beta= 0.70
     Davidson diagonalization with overlap
     ethr =  6.20E-09,  avg # of iterations =  2.0

     negative rho (up, down):  2.507E-03 0.000E+00

     total cpu time spent up to now is     1300.9 secs

     total energy              =  -29529.84873843 Ry
     estimated scf accuracy    <       0.00004345 Ry

     iteration # 16     ecut=    50.00 Ry     beta= 0.70
     Davidson diagonalization with overlap
     ethr =  3.37E-09,  avg # of iterations =  2.0

     negative rho (up, down):  2.507E-03 0.000E+00

     total cpu time spent up to now is     1373.5 secs

     total energy              =  -29529.84874118 Ry
     estimated scf accuracy    <       0.00001518 Ry

     iteration # 17     ecut=    50.00 Ry     beta= 0.70
     Davidson diagonalization with overlap
     ethr =  1.18E-09,  avg # of iterations =  2.0

     negative rho (up, down):  2.507E-03 0.000E+00

     total cpu time spent up to now is     1446.2 secs

     total energy              =  -29529.84874253 Ry
     estimated scf accuracy    <       0.00000522 Ry

     iteration # 18     ecut=    50.00 Ry     beta= 0.70
     Davidson diagonalization with overlap
     ethr =  4.05E-10,  avg # of iterations =  2.0

     negative rho (up, down):  2.507E-03 0.000E+00

     total cpu time spent up to now is     1519.3 secs

     total energy              =  -29529.84874290 Ry
     estimated scf accuracy    <       0.00000179 Ry

     iteration # 19     ecut=    50.00 Ry     beta= 0.70
     Davidson diagonalization with overlap
     ethr =  1.39E-10,  avg # of iterations =  2.0

     negative rho (up, down):  2.508E-03 0.000E+00

     total cpu time spent up to now is     1592.2 secs

     End of self-consistent calculation

          k = 0.0000 0.0000 0.0000 ( 65383 PWs)   bands (ev):

  -131.2569-131.2321-131.2193-131.2057-131.0596-131.0582-131.0367-131.0296
  -131.0241-131.0181-131.0100-131.0054-130.5854-130.5669-130.5577-130.5432
  -130.5399-130.5365-130.5280-130.5213-130.0878-130.0862-130.0651-130.0572
  -130.0519-130.0457-130.0374-130.0328-129.8827-129.8558-129.8442-129.8306
  -127.6612-127.1411-127.1136-127.0819-127.0779-127.0774-127.0680-127.0645
  -127.0572-127.0557-127.0545-127.0539-127.0536-127.0437-127.0390-127.0358
  -127.0332-127.0319-127.0287-127.0271-127.0253-127.0243-127.0222-127.0202
  -127.0189-127.0154-127.0147-127.0136-127.0115-127.0114-127.0063-127.0011
   -87.2662 -87.2405 -87.2290 -87.2164 -87.1654 -87.1627 -87.1369 -87.1342
   -87.1260 -87.1233 -87.1134 -87.1110 -86.7906 -86.7777 -86.7524 -86.7520
   -86.7416 -86.7394 -86.7289 -86.7269 -86.2906 -86.2786 -86.2515 -86.2445
   -86.2383 -86.2329 -86.2246 -86.2214 -86.0523 -86.0137 -86.0017 -85.9892
   -85.3310 -85.2875 -85.2751 -85.2625 -84.9862 -84.9663 -84.9372 -84.9316
   -84.9248 -84.9204 -84.9113 -84.9089 -84.5004 -84.4803 -84.4651 -84.4499
   -84.3912 -84.3895 -84.3716 -84.3643 -84.3574 -84.3517 -84.3422 -84.3373
   -84.2511 -84.2281 -84.2012 -84.1979 -84.1895 -84.1867 -84.1757 -84.1753
   -84.1336 -84.1156 -84.1087 -84.0966 -84.0913 -84.0868 -84.0777 -84.0697
   -83.8598 -83.8578 -83.8421 -83.8326 -83.8265 -83.8204 -83.8108 -83.8060
   -83.7487 -83.7252 -83.7130 -83.6983 -83.5738 -83.5631 -83.5369 -83.5324
   -83.5255 -83.5216 -83.5123 -83.5092 -83.2785 -83.2512 -83.2407 -83.2278
   -81.8682 -81.6037 -81.5858 -81.3582 -81.3276 -81.3227 -81.3047 -81.2936
   -81.2831 -81.2714 -81.2620 -81.2600 -81.2573 -81.2571 -81.2473 -81.2422
   -81.2407 -81.2379 -81.2352 -81.2313 -81.2200 -81.2095 -81.2040 -81.2011
   -81.2006 -81.1964 -81.1962 -81.1939 -81.1924 -81.1913 -81.1889 -81.1867
   -81.1818 -81.1791 -81.1059 -81.0891 -81.0763 -81.0644 -81.0471 -81.0463
   -81.0368 -81.0345 -81.0343 -81.0313 -81.0301 -81.0278 -81.0254 -81.0230
   -81.0210 -81.0206 -81.0192 -81.0137 -81.0122 -81.0105 -81.0096 -81.0094
   -81.0085 -81.0083 -81.0082 -80.9968 -80.9966 -80.9965 -80.9965 -80.9960
   -80.9939 -80.9924 -80.9904 -80.9897 -80.9895 -80.9890 -80.9866 -80.9857
   -80.9848 -80.9839 -80.9836 -80.9820 -80.9808 -80.9806 -80.9802 -80.9797
   -80.9787 -80.9776 -80.9762 -80.9736 -80.9730 -80.9721 -80.9720 -80.9695
   -80.9691 -80.9682 -80.9649 -80.9649 -80.9649 -80.9617 -80.9574 -80.9561
   -22.3631 -16.9447 -16.9439 -16.9101 -16.9099 -16.8786 -16.8781 -16.8547
   -16.8545 -16.7117 -16.7036 -16.6764 -16.6708 -16.6370 -16.6265 -16.6077
   -16.6049 -15.7819 -15.7319 -15.7217 -15.6780 -14.9039 -14.8986 -14.8682
   -14.8677 -14.8637 -14.8471 -14.8464 -14.8299 -14.8256 -14.8251 -14.8187
   -14.8050 -14.6548 -14.6511 -14.6243 -14.6232 -14.5502 -14.5075 -14.4958
   -14.4686 -14.4609 -14.4582 -14.4345 -14.4329 -14.3649 -14.3604 -14.3008
   -14.2449 -14.2406 -14.2379 -14.2368 -14.2078 -14.2052 -14.1822 -14.0710
   -14.0682 -13.4830 -13.3864 -13.3823 -13.3683 -13.3609 -13.3444 -13.3419
   -13.3357 -13.3335 -13.3268 -13.3243 -13.3238 -13.3195 -13.3052 -13.3009
   -13.2866 -13.2833 -13.2512 -13.2450 -13.2238 -13.2221 -13.1893 -13.1844
   -13.1629 -13.1612 -13.0376 -13.0118 -12.9127 -12.8955 -12.8225 -12.7994
   -12.7989 -12.7712 -12.7367 -12.7213 -12.7184 -12.6752 -12.5887 -12.5749
   -12.3615 -12.3370 -12.2418 -12.1811 -12.1699 -12.1531 -12.1371 -12.1237
   -12.1233 -12.0851 -11.7680 -11.7092 -11.6978 -11.6916 -11.6831 -11.6703
   -11.6652 -11.6626 -11.6407 -11.6266 -11.2700 -11.2437 -11.2163 -11.2003
   -11.1685 -11.1076 -11.0656 -11.0026 -10.9902 -10.8502 -10.8004 -10.7957
   -10.7805 -10.7344 -10.7111 -10.7019 -10.6646 -10.6630 -10.5990 -10.5846
   -10.5816 -10.5318 -10.5275 -10.5131 -10.4472 -10.2415 -10.2114 -10.1372
   -10.1167 -10.0979 -10.0771 -10.0612  -9.9537  -9.9415  -9.9154  -9.8936
    -9.8731  -9.8459  -9.8097  -9.7809  -9.7795  -9.7648  -9.7565  -9.7360
    -9.7342  -9.7224  -9.4510  -9.4362  -9.4138  -9.4111  -9.3656  -9.3308
    -9.3121  -9.3073  -9.2305  -8.8665  -8.8336  -8.7590  -8.7480  -8.7266
    -8.6953  -8.6755  -8.6648  -8.5994  -8.5014  -8.4742  -8.4401  -8.4003
    -8.3542  -8.3391  -8.2976  -8.2318  -8.2191  -8.2020  -8.1962  -8.1678
    -8.1466  -8.1261  -8.1251  -8.1201  -8.1165  -8.0815  -8.0691  -8.0115
    -7.9964  -7.9859  -7.9714  -7.9577  -7.8954  -7.8683  -7.8447  -7.8327
    -7.8281  -7.8201  -7.8194  -7.8066  -7.7960  -7.7853  -7.7735  -7.7520
    -7.7470  -7.7410  -7.7332  -7.7309  -7.7281  -7.7240  -7.7181  -7.7126
    -7.7043  -7.6978  -7.6878  -7.6863  -7.6701  -7.6476  -7.6393  -7.6282
    -7.6234  -7.6194  -7.6164  -7.6062  -7.6052  -7.5952  -7.5938  -7.5851
    -7.5754  -7.5490  -7.5431  -7.5387  -7.5184  -7.4982  -7.4835  -7.4775
    -7.4610  -7.4413  -7.4270  -7.4149  -7.4139  -7.4064  -7.3971  -7.3933
    -7.3917  -7.3889  -7.3673  -7.3516  -7.3131  -7.3072  -7.3014  -7.2983
    -7.2940  -7.2852  -7.2781  -7.2550  -7.2433  -7.2361  -7.2164  -7.2029
    -7.2003  -7.1706  -7.1655  -7.1587  -7.1547  -7.1514  -7.1500  -7.1427
    -7.1387  -7.1214  -7.1095  -7.1041  -7.0947  -7.0843  -7.0657  -7.0593
    -7.0402  -7.0369  -7.0159  -7.0046  -7.0019  -6.9760  -6.9718  -6.9617
    -6.9598  -6.9561  -6.9377  -6.9372  -6.9278  -6.9200  -6.8926  -6.8763
    -6.8596  -6.8406  -6.8340  -6.8174  -6.8084  -6.8057  -6.7887  -6.7407
    -6.7210  -6.7043  -6.6211  -6.6080  -6.5952  -6.5716  -6.4437  -6.3502
    -6.3015  -6.2762  -6.2415  -6.2385  -6.2047  -6.1915  -6.1663  -6.1644
    -5.9629  -5.9287  -5.9099  -5.8646  -5.8629  -5.8039  -5.7990  -5.7702
    -5.7698  -5.5172  -5.4159  -5.2586  -5.1202  -5.0448  -4.8907  -4.8771
    -4.8317  -4.8283  -4.7123  -4.6281  -4.6009  -4.5995  -4.4762  -4.2451
    -4.2156  -4.0396  -3.5741  -2.9676  -2.9503  -2.9036  -2.8702  -2.7114
    -2.6806  -2.6449  -2.5035  -1.7569  -1.5555  -1.5497  -1.1362  -0.4203
    -0.3647  -0.2525  -0.1972  -0.1421  -0.1385   0.2378   0.2801   0.3210
     0.3309   0.4019   0.4339   0.4548   0.5126   0.5451   0.5969   0.9435
     0.9534   0.9712   0.9937   1.3608   1.4632   1.5186   1.6098   1.6169
     1.6303   1.6403   1.6449   1.6537   1.6748   2.2087   2.2798   2.2960
     2.3165   2.3705   2.5572   2.6442   2.8964   2.9426   3.2499   3.2888
     3.3061   3.3208   3.4701   3.4926   3.5344   3.6279   3.7092   3.8080
     3.8916   3.9297   3.9509   4.2797   4.3686   4.4539   4.6093   4.6874
     4.7278   5.1277   5.3414   5.3499   5.3607   5.4153   5.4587   5.5701
     5.6589   5.8055   5.8216   5.8397   5.8525   5.9249   5.9437   5.9667
     6.0708   6.1222   6.1650   6.1880   6.2255   6.2641   6.2915   6.3089
     6.3411   6.3652   6.3883   6.4702   6.5050   6.5091   6.5184   6.5487
     6.5575   6.6628   6.7783   6.8066   6.8371   6.8447   6.8921   6.9036
     6.9562   6.9956   7.0227   7.0450   7.0539   7.0671   7.0908   7.1542
     7.1739   7.2032   7.2189   7.2193   7.2676   7.2750   7.3039   7.4515
     7.4905   7.5092   7.5903   7.6577   7.7522   7.9006   7.9139   7.9695
     7.9860   8.0013   8.0228   8.0574   8.0770   8.0817   8.0958   8.1194
     8.1299   8.1562   8.1766   8.2147   8.2233   8.2279   8.2433   8.3014
     8.4782   8.4846   8.5067   8.5702   8.5885   8.6271   8.6342   8.6549
     8.6602   8.6697   8.7054   8.7372   8.7979

     the Fermi energy is     1.3927 ev

!    total energy              =  -29529.84874275 Ry
     estimated scf accuracy    <       0.00000048 Ry
     smearing contrib. (-TS)   =      -0.01373870 Ry
     internal energy E=F+TS    =  -29529.83500405 Ry

     The total energy is F=E-TS. E is the sum of the following terms:
     one-electron contribution = -241129.16551374 Ry
     hartree contribution      =  120323.21899251 Ry
     xc contribution           =   -2744.95826560 Ry
     ewald contribution        =   94030.58922469 Ry
     one-center paw contrib.   =      -9.51944191 Ry

     convergence has been achieved in  19 iterations

     negative rho (up, down):  2.508E-03 0.000E+00

     Forces acting on atoms (cartesian axes, Ry/au):

     atom    1 type  1   force =     1.10268453   -0.43350459   -1.38108088
     atom    2 type  1   force =     1.10245497   -0.43421882   -1.38276259
     atom    3 type  1   force =     1.10456462   -0.43339880   -1.38327039
     atom    4 type  1   force =     1.10214018   -0.43306281   -1.38257721
     atom    5 type  1   force =     1.10065125   -0.43247555   -1.38284547
     atom    6 type  1   force =     1.10024749   -0.43199042   -1.38366859
     atom    7 type  1   force =     1.09950861   -0.43240034   -1.38275205
     atom    8 type  1   force =     1.10088868   -0.43176219   -1.38258020
     atom    9 type  1   force =     1.10319139   -0.43453044   -1.38239567
     atom   10 type  1   force =     1.10350556   -0.43372985   -1.37965046
     atom   11 type  1   force =     1.10379910   -0.43256680   -1.38324077
     atom   12 type  1   force =     1.10422641   -0.43426349   -1.38432361
     atom   13 type  1   force =     1.10135499   -0.43114560   -1.38049485
     atom   14 type  1   force =     1.10002676   -0.43440110   -1.38059978
     atom   15 type  1   force =     1.10139432   -0.43180274   -1.37986370
     atom   16 type  1   force =     1.10144408   -0.43373225   -1.37974436
     atom   17 type  1   force =    -1.10225285    0.43317602    1.38297374
     atom   18 type  1   force =    -1.10238114    0.43339270    1.38332589
     atom   19 type  1   force =    -1.10154226    0.43284558    1.38417114
     atom   20 type  1   force =    -1.10255683    0.43311458    1.38301975
     atom   21 type  1   force =    -1.10183830    0.43506656    1.38181539
     atom   22 type  1   force =    -1.12290479    0.43203606    1.37156954
     atom   23 type  1   force =    -1.11027485    0.44412383    1.37451815
     atom   24 type  1   force =    -1.10292964    0.43258974    1.38131605
     atom   25 type  1   force =    -1.09947212    0.41664181    1.37401827
     atom   26 type  1   force =    -0.98385872    0.43623403    1.21460445
     atom   27 type  1   force =    -1.09532601    0.43938164    1.37704184
     atom   28 type  1   force =    -1.10273376    0.43321850    1.38100120
     atom   29 type  1   force =    -1.10292976    0.43316872    1.38284130
     atom   30 type  1   force =    -1.10303094    0.43358060    1.38278463
     atom   31 type  1   force =    -1.10279060    0.43370690    1.38395537
     atom   32 type  1   force =    -1.10285827    0.43306935    1.38345764
     atom   33 type  1   force =    -0.01735706    0.00678165    0.08789333
     atom   34 type  1   force =    -0.01652062    0.00646861    0.08650121
     atom   35 type  1   force =    -0.01491143    0.00623213    0.08694309
     atom   36 type  1   force =    -0.01638929    0.00622059    0.08759761
     atom   37 type  1   force =    -0.01594988    0.00682032    0.08762833
     atom   38 type  1   force =    -0.02445594    0.00203569    0.06021389
     atom   39 type  1   force =    -0.01872118    0.01219594    0.07402444
     atom   40 type  1   force =    -0.01721708    0.00728436    0.08688747
     atom   41 type  1   force =    -0.01619058    0.00633834    0.08825367
     atom   42 type  1   force =    -0.01403158    0.00609057    0.08666307
     atom   43 type  1   force =    -0.01700520    0.00719243    0.08950442
     atom   44 type  1   force =    -0.01774856    0.00650820    0.08671492
     atom   45 type  1   force =    -0.01574196    0.00701929    0.08728696
     atom   46 type  1   force =    -0.01630978    0.00639382    0.08705136
     atom   47 type  1   force =    -0.01681076    0.00664032    0.08817179
     atom   48 type  1   force =    -0.01615793    0.00723445    0.08719562
     atom   49 type  1   force =     0.01672379   -0.00686630   -0.08589987
     atom   50 type  1   force =     0.01514559   -0.00617288   -0.08786912
     atom   51 type  1   force =     0.01485961   -0.00585772   -0.08748029
     atom   52 type  1   force =     0.01515718   -0.00679607   -0.08794507
     atom   53 type  1   force =     0.01749324   -0.00662386   -0.08891577
     atom   54 type  1   force =     0.01579082   -0.00611490   -0.09057506
     atom   55 type  1   force =     0.01635168   -0.00702868   -0.09078209
     atom   56 type  1   force =     0.01831806   -0.00715760   -0.08904033
     atom   57 type  1   force =     0.01628267   -0.00288067   -0.08337253
     atom   58 type  1   force =     0.01249159   -0.00443605   -0.09565594
     atom   59 type  1   force =     0.01510619   -0.00790024   -0.08456405
     atom   60 type  1   force =     0.01435202   -0.00537911   -0.08273617
     atom   61 type  1   force =     0.01982876   -0.00979963   -0.09205138
     atom   62 type  1   force =     0.02075140   -0.00684321   -0.09072047
     atom   63 type  1   force =     0.01644957   -0.00611435   -0.08835779
     atom   64 type  1   force =     0.01677884   -0.00699369   -0.08847396
     atom   65 type  2   force =    -0.10406418    0.05403804    0.09034125
     atom   66 type  3   force =     0.02856201   -0.06320681    0.12632048
     atom   67 type  3   force =    -0.00726210   -0.00168379    0.02868324

     Total force =     4.388093     Total SCF correction =     0.005032

     BFGS Geometry Optimization
     Energy error            =      0.0E+00 Ry
     Gradient error          =      1.4E+00 Ry/Bohr

     number of scf cycles    =   1
     number of bfgs steps    =   0

     energy             new  =  -29529.8487427534 Ry

     new trust radius        =       0.5000000000 bohr
     new conv_thr            =       0.0000010000 Ry


ATOMIC_POSITIONS (angstrom)
Zn               1.7868870000        0.7022520000        0.2764250000    0   0   0
Zn               2.7431440000        3.1354490000        0.2764250000    0   0   0
Zn               3.6994050000        5.5686560000        0.2764250000    0   0   0
Zn               4.6556580000        8.0018440000        0.2764250000    0   0   0
Zn               5.3606520000        0.7022520000        0.2764250000    0   0   0
Zn               6.3169090000        3.1354490000        0.2764250000    0   0   0
Zn               7.2731700000        5.5686560000        0.2764250000    0   0   0
Zn               8.2294230000        8.0018440000        0.2764250000    0   0   0
Zn               8.9344180000        0.7022520000        0.2764250000    0   0   0
Zn               9.8906750000        3.1354490000        0.2764250000    0   0   0
Zn              10.8469360000        5.5686560000        0.2764250000    0   0   0
Zn              11.8031890000        8.0018440000        0.2764250000    0   0   0
Zn              12.5081830000        0.7022520000        0.2764250000    0   0   0
Zn              13.4644400000        3.1354490000        0.2764250000    0   0   0
Zn              14.4207010000        5.5686560000        0.2764250000    0   0   0
Zn              15.3769540000        8.0018440000        0.2764250000    0   0   0
Zn               2.4918740000        0.4251900000        3.0407460000    0   0   0
Zn               3.4481310000        2.8583870000        3.0407460000    0   0   0
Zn               4.4043880000        5.2915840000        3.0407460000    0   0   0
Zn               5.3606450000        7.7247820000        3.0407460000    0   0   0
Zn               5.9058499954        0.4882835156        3.2411373874
Zn               6.8590519255        2.9210410320        3.2396515299
Zn               7.8171405233        5.3559910044        3.2400791388
Zn               8.9344100000        7.7247820000        3.0407460000    0   0   0
Zn               9.4799591393        0.4856115513        3.2400066458
Zn              10.4529824388        2.9216498228        3.2168883934
Zn              11.3930744109        5.3553032908        3.2404451254
Zn              12.5081760000        7.7247820000        3.0407460000    0   0   0
Zn              13.2131700000        0.4251900000        3.0407460000    0   0   0
Zn              14.1694270000        2.8583870000        3.0407460000    0   0   0
Zn              15.1256840000        5.2915840000        3.0407460000    0   0   0
Zn              16.0819410000        7.7247820000        3.0407460000    0   0   0
Zn               3.4481380000        0.0493690000        1.9350220000    0   0   0
Zn               4.4043950000        2.4825670000        1.9350220000    0   0   0
Zn               5.3584855384        4.9166577861        1.9476305190
Zn               6.3169090000        7.3489610000        1.9350220000    0   0   0
Zn               7.0195899428        0.0503580850        1.9477298933
Zn               7.9746133909        2.4828622164        1.9437542410
Zn               8.9316980469        4.9175226598        1.9457570520
Zn               9.8881771730        7.3500173813        1.9476224540
Zn              10.5933210358        0.0502881878        1.9478205806
Zn              11.5498911345        2.4834502574        1.9475899103
Zn              12.5057129002        4.9167970485        1.9480019644
Zn              13.4644400000        7.3489610000        1.9350220000    0   0   0
Zn              14.1694340000        0.0493690000        1.9350220000    0   0   0
Zn              15.1256910000        2.4825670000        1.9350220000    0   0   0
Zn              16.0819440000        4.9157540000        1.9350220000    0   0   0
Zn              17.0382050000        7.3489610000        1.9350220000    0   0   0
Zn               0.8306230000        1.0780720000        1.3821490000    0   0   0
Zn               1.7868800000        3.5112700000        1.3821490000    0   0   0
Zn               2.7431370000        5.9444670000        1.3821490000    0   0   0
Zn               3.6993940000        8.3776640000        1.3821490000    0   0   0
Zn               4.4043880000        1.0780720000        1.3821490000    0   0   0
Zn               5.3606450000        3.5112700000        1.3821490000    0   0   0
Zn               6.3169020000        5.9444670000        1.3821490000    0   0   0
Zn               7.2731590000        8.3776640000        1.3821490000    0   0   0
Zn               7.9781540000        1.0780720000        1.3821490000    0   0   0
Zn               8.9344110000        3.5112700000        1.3821490000    0   0   0
Zn               9.8906680000        5.9444670000        1.3821490000    0   0   0
Zn              10.8469250000        8.3776640000        1.3821490000    0   0   0
Zn              11.5519190000        1.0780720000        1.3821490000    0   0   0
Zn              12.5081760000        3.5112700000        1.3821490000    0   0   0
Zn              13.4644330000        5.9444670000        1.3821490000    0   0   0
Zn              14.4206900000        8.3776640000        1.3821490000    0   0   0
O                9.0119745742        3.2114826171        4.4105113216
H                9.8880030730        2.7429097243        4.3601640437
H                8.7307658476        3.0438078157        5.3118716547



     Writing config-only to output data dir /home/ys/Research/PSID_server_room/qe/zinc_surface_water.relax/Zn_101_water/pwscf.save/ :
     XML data file
     NEW-OLD atomic charge density approx. for the potential

     negative rho (up, down):  2.947E-03 0.000E+00

     total cpu time spent up to now is     1625.2 secs

     Self-consistent Calculation

     iteration #  1     ecut=    50.00 Ry     beta= 0.70
     Davidson diagonalization with overlap
     ethr =  1.00E-06,  avg # of iterations = 11.0

     negative rho (up, down):  2.478E-03 0.000E+00

     total cpu time spent up to now is     1826.0 secs

     total energy              =  -29533.14540619 Ry
     estimated scf accuracy    <       0.05798247 Ry

     iteration #  2     ecut=    50.00 Ry     beta= 0.70
     Davidson diagonalization with overlap
     ethr =  4.50E-06,  avg # of iterations =  9.0

     negative rho (up, down):  2.561E-03 0.000E+00

     total cpu time spent up to now is     1929.0 secs

     total energy              =  -29533.08560829 Ry
     estimated scf accuracy    <       0.58267118 Ry

     iteration #  3     ecut=    50.00 Ry     beta= 0.70
     Davidson diagonalization with overlap
     ethr =  4.50E-06,  avg # of iterations =  8.0

     negative rho (up, down):  2.572E-03 0.000E+00

     total cpu time spent up to now is     2026.2 secs

     total energy              =  -29533.14679463 Ry
     estimated scf accuracy    <       0.21580765 Ry

     iteration #  4     ecut=    50.00 Ry     beta= 0.70
     Davidson diagonalization with overlap
     ethr =  4.50E-06,  avg # of iterations =  6.0

     negative rho (up, down):  2.581E-03 0.000E+00

     total cpu time spent up to now is     2111.5 secs

     total energy              =  -29533.16281201 Ry
     estimated scf accuracy    <       0.03350299 Ry

     iteration #  5     ecut=    50.00 Ry     beta= 0.70
     Davidson diagonalization with overlap
     ethr =  2.60E-06,  avg # of iterations =  3.0

     negative rho (up, down):  2.584E-03 0.000E+00

     total cpu time spent up to now is     2188.9 secs

     total energy              =  -29533.16531194 Ry
     estimated scf accuracy    <       0.02761891 Ry

     iteration #  6     ecut=    50.00 Ry     beta= 0.70
     Davidson diagonalization with overlap
     ethr =  2.14E-06,  avg # of iterations =  3.0

     negative rho (up, down):  2.585E-03 0.000E+00

     total cpu time spent up to now is     2265.0 secs

     total energy              =  -29533.16730549 Ry
     estimated scf accuracy    <       0.01469388 Ry

     iteration #  7     ecut=    50.00 Ry     beta= 0.70
     Davidson diagonalization with overlap
     ethr =  1.14E-06,  avg # of iterations =  2.0

     negative rho (up, down):  2.585E-03 0.000E+00

     total cpu time spent up to now is     2337.6 secs

     total energy              =  -29533.16870586 Ry
     estimated scf accuracy    <       0.00061545 Ry

     iteration #  8     ecut=    50.00 Ry     beta= 0.70
     Davidson diagonalization with overlap
     ethr =  4.78E-08,  avg # of iterations =  2.0

     negative rho (up, down):  2.585E-03 0.000E+00

     total cpu time spent up to now is     2414.2 secs

     total energy              =  -29533.16875617 Ry
     estimated scf accuracy    <       0.00057702 Ry

     iteration #  9     ecut=    50.00 Ry     beta= 0.70
     Davidson diagonalization with overlap
     ethr =  4.48E-08,  avg # of iterations =  2.0

     negative rho (up, down):  2.585E-03 0.000E+00

     total cpu time spent up to now is     2486.7 secs

     total energy              =  -29533.16881071 Ry
     estimated scf accuracy    <       0.00025494 Ry

     iteration # 10     ecut=    50.00 Ry     beta= 0.70
     Davidson diagonalization with overlap
     ethr =  1.98E-08,  avg # of iterations =  2.0

     negative rho (up, down):  2.585E-03 0.000E+00

     total cpu time spent up to now is     2559.4 secs

     total energy              =  -29533.16883416 Ry
     estimated scf accuracy    <       0.00002109 Ry

     iteration # 11     ecut=    50.00 Ry     beta= 0.70
     Davidson diagonalization with overlap
     ethr =  1.64E-09,  avg # of iterations =  2.0

     negative rho (up, down):  2.585E-03 0.000E+00

     total cpu time spent up to now is     2636.8 secs

     total energy              =  -29533.16883436 Ry
     estimated scf accuracy    <       0.00003994 Ry

     iteration # 12     ecut=    50.00 Ry     beta= 0.70
     Davidson diagonalization with overlap
     ethr =  1.64E-09,  avg # of iterations =  2.0

     negative rho (up, down):  2.585E-03 0.000E+00

     total cpu time spent up to now is     2709.4 secs

     total energy              =  -29533.16883805 Ry
     estimated scf accuracy    <       0.00000601 Ry

     iteration # 13     ecut=    50.00 Ry     beta= 0.70
     Davidson diagonalization with overlap
     ethr =  4.66E-10,  avg # of iterations =  2.0

     negative rho (up, down):  2.585E-03 0.000E+00

     total cpu time spent up to now is     2782.5 secs

     total energy              =  -29533.16883804 Ry
     estimated scf accuracy    <       0.00000927 Ry

     iteration # 14     ecut=    50.00 Ry     beta= 0.70
     Davidson diagonalization with overlap
     ethr =  4.66E-10,  avg # of iterations =  2.0

     negative rho (up, down):  2.585E-03 0.000E+00

     total cpu time spent up to now is     2855.0 secs

     total energy              =  -29533.16883879 Ry
     estimated scf accuracy    <       0.00000226 Ry

     iteration # 15     ecut=    50.00 Ry     beta= 0.70
     Davidson diagonalization with overlap
     ethr =  1.76E-10,  avg # of iterations =  2.0

     negative rho (up, down):  2.585E-03 0.000E+00

     total cpu time spent up to now is     2927.3 secs

     End of self-consistent calculation

          k = 0.0000 0.0000 0.0000 ( 65383 PWs)   bands (ev):

  -131.1903-131.1493-130.9971-130.9874-130.9696-130.9588-130.9460-130.8843
  -130.6770-130.6354-130.6278-130.5659-130.5128-130.5059-130.4960-130.4503
  -130.3853-130.3331-130.0444-130.0248-130.0151-129.9936-129.9914-129.9818
  -129.8155-129.7841-129.5732-129.5016-129.4202-129.3556-129.2944-129.2296
  -127.1746-127.0725-127.0554-127.0456-127.0344-127.0265-127.0223-127.0219
  -127.0163-127.0147-127.0122-127.0112-127.0099-127.0097-127.0085-127.0055
  -127.0033-127.0025-126.9917-126.9868-126.9846-126.9810-126.9641-126.9588
  -126.9538-126.9208-126.9043-126.1415-126.1039-126.0174-125.9929-125.9746
   -87.1988 -87.1476 -87.0972 -87.0931 -87.0608 -87.0242 -86.9656 -86.8295
   -86.7127 -86.7108 -86.6923 -86.6837 -86.6667 -86.6560 -86.6306 -86.6125
   -86.3821 -86.3296 -86.2604 -86.2176 -86.2119 -86.2036 -86.1934 -86.1763
   -85.9743 -85.9549 -85.7958 -85.7409 -85.6853 -85.6301 -85.5953 -85.5496
   -85.2478 -85.2263 -84.8983 -84.8917 -84.8805 -84.8617 -84.7610 -84.7339
   -84.4368 -84.3948 -84.3311 -84.3217 -84.2899 -84.2792 -84.2721 -84.1903
   -84.1604 -84.1593 -84.1378 -84.1340 -84.0649 -84.0574 -84.0565 -84.0526
   -84.0433 -84.0177 -84.0157 -83.9963 -83.9873 -83.9565 -83.9544 -83.9370
   -83.8893 -83.8464 -83.7999 -83.7903 -83.7657 -83.7618 -83.7505 -83.7496
   -83.7075 -83.6863 -83.6848 -83.6449 -83.4973 -83.4915 -83.4764 -83.4657
   -83.3240 -83.3053 -83.2588 -83.2407 -83.2292 -83.2110 -83.1910 -83.1861
   -83.1772 -83.1296 -83.0591 -83.0056 -83.0001 -82.9215 -82.8333 -82.7729
   -81.6636 -81.2868 -81.2826 -81.2559 -81.2376 -81.2275 -81.2271 -81.2244
   -81.2172 -81.2117 -81.1958 -81.1894 -81.1886 -81.1841 -81.1823 -81.1811
   -81.1768 -81.1697 -81.1686 -81.1647 -81.1578 -81.1558 -81.1537 -81.1482
   -81.1465 -81.1361 -81.1276 -81.1125 -81.0611 -81.0282 -81.0221 -81.0201
   -81.0125 -81.0062 -81.0010 -80.9980 -80.9905 -80.9877 -80.9866 -80.9864
   -80.9828 -80.9827 -80.9766 -80.9765 -80.9761 -80.9761 -80.9758 -80.9737
   -80.9723 -80.9722 -80.9699 -80.9694 -80.9674 -80.9663 -80.9649 -80.9648
   -80.9633 -80.9625 -80.9613 -80.9613 -80.9612 -80.9609 -80.9593 -80.9578
   -80.9525 -80.9507 -80.9478 -80.9445 -80.9412 -80.9383 -80.9356 -80.9320
   -80.9255 -80.9127 -80.9116 -80.9078 -80.9023 -80.8815 -80.8781 -80.8627
   -80.8553 -80.4877 -80.4489 -80.3470 -80.3268 -80.3138 -80.2078 -80.1966
   -80.1668 -80.1639 -80.1066 -80.0750 -80.0713 -80.0503 -80.0455 -80.0322
   -22.9000 -16.8654 -16.8650 -16.8164 -16.8142 -16.6325 -16.6175 -16.5576
   -16.5541 -16.4523 -16.4281 -16.3536 -16.3417 -16.0944 -16.0388 -15.8734
   -15.8011 -15.7009 -15.6575 -15.1661 -15.1036 -14.8228 -14.8219 -14.7906
   -14.7798 -14.7640 -14.7544 -14.5653 -14.5621 -14.4700 -14.4378 -14.4311
   -14.4192 -14.3926 -14.3596 -14.3508 -14.2697 -14.2596 -14.2499 -14.2450
   -14.2258 -14.2128 -14.1723 -14.1519 -14.1360 -14.1184 -14.0886 -14.0766
   -14.0598 -14.0193 -14.0074 -13.8505 -13.8053 -13.7509 -13.6961 -13.6450
   -13.5996 -13.3121 -13.3034 -13.2923 -13.2890 -13.2833 -13.2736 -13.2414
   -13.2340 -13.2062 -13.1982 -13.1897 -13.1552 -13.1454 -13.1238 -13.1157
   -13.0853 -13.0635 -12.9127 -12.9097 -12.8520 -12.7819 -12.7765 -12.7435
   -12.7335 -12.7189 -12.7041 -12.6965 -12.6644 -12.6240 -12.6134 -12.5851
   -12.5594 -12.5486 -12.3902 -12.3718 -12.2295 -12.1159 -12.0713 -12.0468
   -12.0289 -12.0145 -11.9386 -11.8817 -11.7639 -11.6839 -11.6662 -11.6613
   -11.6112 -11.4871 -11.4544 -11.3587 -11.2240 -11.2082 -11.2002 -11.1342
   -11.1239 -11.0969 -11.0876 -11.0133 -10.9372 -10.8692 -10.8484 -10.8322
   -10.8308 -10.7866 -10.7648 -10.7551 -10.6623 -10.6221 -10.6190 -10.6169
   -10.5946 -10.4940 -10.4400 -10.4121 -10.3599 -10.2414 -10.1261 -10.1253
   -10.1150 -10.0507 -10.0201 -10.0021  -9.9861  -9.9637  -9.9627  -9.9078
    -9.8044  -9.7808  -9.7326  -9.7070  -9.6890  -9.6826  -9.6658  -9.6554
    -9.6334  -9.5697  -9.5008  -9.4471  -9.3960  -9.3848  -9.3670  -9.3053
    -9.2743  -9.2197  -9.1994  -9.1220  -9.0809  -9.0479  -9.0084  -9.0045
    -8.9809  -8.8987  -8.8698  -8.7214  -8.6907  -8.6602  -8.5870  -8.5745
    -8.5671  -8.4673  -8.3978  -8.3221  -8.2970  -8.2510  -8.2424  -8.2129
    -8.1874  -8.1783  -8.1675  -8.1647  -8.1134  -8.1047  -8.0879  -8.0859
    -8.0776  -8.0308  -8.0256  -7.9949  -7.9609  -7.9366  -7.9225  -7.8253
    -7.8217  -7.8022  -7.7820  -7.7624  -7.7601  -7.7551  -7.7442  -7.7298
    -7.7138  -7.7101  -7.7092  -7.7022  -7.6958  -7.6897  -7.6825  -7.6726
    -7.6650  -7.6605  -7.6279  -7.6210  -7.5950  -7.5925  -7.5788  -7.5741
    -7.5718  -7.5644  -7.5610  -7.5513  -7.5436  -7.5248  -7.5151  -7.5020
    -7.5004  -7.4920  -7.4881  -7.4574  -7.4362  -7.4278  -7.4230  -7.4093
    -7.3825  -7.3725  -7.3678  -7.3647  -7.3589  -7.3533  -7.3439  -7.3325
    -7.3282  -7.3070  -7.2863  -7.2688  -7.2599  -7.2405  -7.2303  -7.2258
    -7.2127  -7.2051  -7.1823  -7.1685  -7.1539  -7.1397  -7.1306  -7.1239
    -7.1164  -7.1063  -7.1058  -7.0877  -7.0745  -7.0716  -7.0574  -7.0500
    -7.0379  -7.0286  -7.0207  -7.0186  -7.0057  -6.9991  -6.9736  -6.9699
    -6.9642  -6.9513  -6.9337  -6.9163  -6.9055  -6.8917  -6.8862  -6.8806
    -6.8676  -6.8668  -6.8544  -6.8460  -6.8253  -6.8215  -6.8087  -6.8067
    -6.7985  -6.7954  -6.7749  -6.7689  -6.7589  -6.7527  -6.7268  -6.6959
    -6.6777  -6.6686  -6.6521  -6.6363  -6.6296  -6.6173  -6.6075  -6.5870
    -6.5856  -6.5827  -6.5605  -6.5537  -6.4199  -6.3952  -6.3583  -6.2433
    -6.2174  -6.2009  -6.1715  -6.1365  -6.1278  -6.1101  -6.0779  -6.0702
    -5.9238  -5.8798  -5.8759  -5.8240  -5.8157  -5.7581  -5.7553  -5.7264
    -5.7226  -5.4254  -5.3467  -5.1917  -5.0171  -5.0083  -4.8182  -4.7945
    -4.7714  -4.7292  -4.6433  -4.4947  -4.4759  -4.3746  -4.2827  -4.1009
    -4.0755  -4.0705  -3.4616  -2.8454  -2.8299  -2.7537  -2.7248  -2.7216
    -2.6681  -2.5343  -2.3842  -1.7713  -1.3981  -1.3785  -1.1789  -0.4556
    -0.4007  -0.2238  -0.1682  -0.0444  -0.0141   0.1419   0.1931   0.2644
     0.3270   0.4093   0.4905   0.5073   0.5236   0.5827   0.6317   1.0584
     1.0699   1.1258   1.1641   1.3201   1.4723   1.5345   1.6912   1.7025
     1.7068   1.7141   1.7436   1.7711   1.8351   2.1420   2.2353   2.3009
     2.3222   2.3568   2.6239   2.7123   2.8657   2.9348   3.2579   3.3289
     3.3966   3.4142   3.5057   3.5406   3.5572   3.5768   3.6126   3.7945
     3.8080   3.9294   3.9827   4.3314   4.4439   4.5173   4.5751   4.6300
     4.7194   5.0887   5.2769   5.3395   5.3761   5.3930   5.4276   5.5459
     5.6018   5.7178   5.7310   5.7741   5.8434   5.8584   5.8957   5.9089
     6.0326   6.0477   6.0700   6.1134   6.1722   6.1864   6.2146   6.2689
     6.3166   6.3362   6.3425   6.4431   6.4790   6.4947   6.5048   6.5084
     6.5316   6.6425   6.7491   6.7655   6.8149   6.8208   6.8888   6.9056
     6.9416   6.9707   6.9917   7.0034   7.0740   7.0847   7.1139   7.1511
     7.1680   7.2129   7.2337   7.2388   7.2770   7.2951   7.3030   7.4135
     7.4432   7.5235   7.6082   7.6890   7.7151   7.8356   7.8834   7.9496
     7.9670   7.9732   8.0254   8.0482   8.0958   8.1176   8.1450   8.1546
     8.1629   8.1998   8.2078   8.2278   8.2750   8.2791   8.3229   8.3982
     8.4445   8.4485   8.4660   8.5453   8.5579   8.5911   8.6026   8.6308
     8.6339   8.6501   8.6764   8.7031   8.7755

     the Fermi energy is     1.3876 ev

!    total energy              =  -29533.16883878 Ry
     estimated scf accuracy    <       0.00000033 Ry
     smearing contrib. (-TS)   =      -0.01067616 Ry
     internal energy E=F+TS    =  -29533.15816263 Ry

     The total energy is F=E-TS. E is the sum of the following terms:
     one-electron contribution = -239308.50455528 Ry
     hartree contribution      =  119421.86680915 Ry
     xc contribution           =   -2742.95488002 Ry
     ewald contribution        =   93105.95386982 Ry
     one-center paw contrib.   =      -9.51940630 Ry

     convergence has been achieved in  15 iterations

     negative rho (up, down):  2.585E-03 0.000E+00

     Forces acting on atoms (cartesian axes, Ry/au):

     atom    1 type  1   force =     1.10415337   -0.43371715   -1.37903263
     atom    2 type  1   force =     1.10493537   -0.43467488   -1.38106335
     atom    3 type  1   force =     1.10908268   -0.43529822   -1.38140899
     atom    4 type  1   force =     1.10312771   -0.43422747   -1.38082709
     atom    5 type  1   force =     1.10248971   -0.43420508   -1.37136399
     atom    6 type  1   force =     1.10310168   -0.43184689   -1.37003293
     atom    7 type  1   force =     1.10089644   -0.43371786   -1.37005540
     atom    8 type  1   force =     1.10160951   -0.43173931   -1.37582939
     atom    9 type  1   force =     1.10248054   -0.43406132   -1.37002271
     atom   10 type  1   force =     1.10255919   -0.43477346   -1.36615093
     atom   11 type  1   force =     1.10282631   -0.43192160   -1.36939882
     atom   12 type  1   force =     1.10084166   -0.43172794   -1.37516390
     atom   13 type  1   force =     1.09936462   -0.42897069   -1.37722722
     atom   14 type  1   force =     1.09692969   -0.43492810   -1.37698485
     atom   15 type  1   force =     1.09938684   -0.43043115   -1.37668454
     atom   16 type  1   force =     1.10015068   -0.43349070   -1.37652544
     atom   17 type  1   force =    -1.10113222    0.43169782    1.38135086
     atom   18 type  1   force =    -1.10244927    0.43351362    1.38258226
     atom   19 type  1   force =    -1.15893410    0.45501313    1.43779106
     atom   20 type  1   force =    -1.10215012    0.43413041    1.38100398
     atom   21 type  1   force =    -0.36291247    0.14535215    0.51787144
     atom   22 type  1   force =    -0.38073256    0.13989207    0.50468881
     atom   23 type  1   force =    -0.37136989    0.15081479    0.50997900
     atom   24 type  1   force =    -1.15781272    0.45597156    1.43475676
     atom   25 type  1   force =    -0.36780563    0.12265147    0.50957578
     atom   26 type  1   force =    -0.19457672    0.19699980    0.22922184
     atom   27 type  1   force =    -0.36044559    0.15279614    0.51284905
     atom   28 type  1   force =    -1.10054771    0.43311754    1.37709141
     atom   29 type  1   force =    -1.10467113    0.43286305    1.37974404
     atom   30 type  1   force =    -1.10486025    0.43627426    1.37940560
     atom   31 type  1   force =    -1.10393267    0.43414655    1.38139819
     atom   32 type  1   force =    -1.10418614    0.43268875    1.38094830
     atom   33 type  1   force =    -0.01523301    0.00527350    0.08639157
     atom   34 type  1   force =    -0.01610654    0.00620913    0.08173545
     atom   35 type  1   force =     0.06704803   -0.02609817    0.02325194
     atom   36 type  1   force =    -0.01466752    0.00628987    0.08438120
     atom   37 type  1   force =    -0.71912897    0.28300727    0.91670818
     atom   38 type  1   force =    -0.73619665    0.29172911    0.89078051
     atom   39 type  1   force =    -0.73169838    0.28373508    0.90281907
     atom   40 type  1   force =     0.06684256   -0.02488224    0.02094622
     atom   41 type  1   force =    -0.71453118    0.28288393    0.91551981
     atom   42 type  1   force =    -0.66794619    0.26011515    0.86634282
     atom   43 type  1   force =    -0.71853760    0.28086356    0.91934575
     atom   44 type  1   force =    -0.01968821    0.00684327    0.08750587
     atom   45 type  1   force =    -0.01434838    0.00600301    0.08722850
     atom   46 type  1   force =    -0.01473075    0.00690520    0.08617609
     atom   47 type  1   force =    -0.01786808    0.00730288    0.08984683
     atom   48 type  1   force =    -0.01673017    0.00656815    0.08771162
     atom   49 type  1   force =     0.01679773   -0.00722446   -0.08610833
     atom   50 type  1   force =     0.01275962   -0.00602950   -0.08700177
     atom   51 type  1   force =     0.01297099   -0.00465153   -0.08516483
     atom   52 type  1   force =     0.01483707   -0.00612190   -0.08783700
     atom   53 type  1   force =     0.02572771   -0.01015868   -0.09162491
     atom   54 type  1   force =     0.02360265    0.03422102   -0.09208513
     atom   55 type  1   force =    -0.00317935   -0.04197308   -0.09235020
     atom   56 type  1   force =     0.02151427   -0.00848650   -0.08953803
     atom   57 type  1   force =    -0.01684086   -0.00518563   -0.06408127
     atom   58 type  1   force =    -0.02042991    0.01236625   -0.06958910
     atom   59 type  1   force =    -0.00910627    0.00012321   -0.07163192
     atom   60 type  1   force =    -0.01483182    0.01666571   -0.06606520
     atom   61 type  1   force =    -0.02252359    0.00327711   -0.07221776
     atom   62 type  1   force =    -0.01789567    0.01361225   -0.07014985
     atom   63 type  1   force =    -0.02523235   -0.04433693   -0.07378038
     atom   64 type  1   force =     0.01146518    0.04935032   -0.07460643
     atom   65 type  2   force =    -0.13054040    0.06721233    0.09883240
     atom   66 type  3   force =    -0.03841297   -0.09829535    0.27752898
     atom   67 type  3   force =    -0.01257779   -0.00530464    0.04829309

     Total force =     3.282129     Total SCF correction =     0.003383
     Energy error            =      3.3E+00 Ry
     Gradient error          =      9.2E-01 Ry/Bohr

     number of scf cycles    =   2
     number of bfgs steps    =   1

     energy             old  =  -29529.8487427534 Ry
     energy             new  =  -29533.1688387817 Ry

     CASE: energy            _new < energy            _old

     new trust radius        =       0.8000000000 bohr
     new conv_thr            =       0.0000010000 Ry


ATOMIC_POSITIONS (angstrom)
Zn               1.7868870000        0.7022520000        0.2764250000    0   0   0
Zn               2.7431440000        3.1354490000        0.2764250000    0   0   0
Zn               3.6994050000        5.5686560000        0.2764250000    0   0   0
Zn               4.6556580000        8.0018440000        0.2764250000    0   0   0
Zn               5.3606520000        0.7022520000        0.2764250000    0   0   0
Zn               6.3169090000        3.1354490000        0.2764250000    0   0   0
Zn               7.2731700000        5.5686560000        0.2764250000    0   0   0
Zn               8.2294230000        8.0018440000        0.2764250000    0   0   0
Zn               8.9344180000        0.7022520000        0.2764250000    0   0   0
Zn               9.8906750000        3.1354490000        0.2764250000    0   0   0
Zn              10.8469360000        5.5686560000        0.2764250000    0   0   0
Zn              11.8031890000        8.0018440000        0.2764250000    0   0   0
Zn              12.5081830000        0.7022520000        0.2764250000    0   0   0
Zn              13.4644400000        3.1354490000        0.2764250000    0   0   0
Zn              14.4207010000        5.5686560000        0.2764250000    0   0   0
Zn              15.3769540000        8.0018440000        0.2764250000    0   0   0
Zn               2.4918740000        0.4251900000        3.0407460000    0   0   0
Zn               3.4481310000        2.8583870000        3.0407460000    0   0   0
Zn               4.4043880000        5.2915840000        3.0407460000    0   0   0
Zn               5.3606450000        7.7247820000        3.0407460000    0   0   0
Zn               5.6586920492        0.5865010401        3.5702156154
Zn               6.6038529521        3.0172192480        3.5634430340
Zn               7.5663598760        5.4569956791        3.5658480382
Zn               8.9344100000        7.7247820000        3.0407460000    0   0   0
Zn               9.2316035733        0.5746284209        3.5655907233
Zn              10.2717399192        3.0357488437        3.4372896078
Zn              11.1474753532        5.4563238443        3.5674013437
Zn              12.5081760000        7.7247820000        3.0407460000    0   0   0
Zn              13.2131700000        0.4251900000        3.0407460000    0   0   0
Zn              14.1694270000        2.8583870000        3.0407460000    0   0   0
Zn              15.1256840000        5.2915840000        3.0407460000    0   0   0
Zn              16.0819410000        7.7247820000        3.0407460000    0   0   0
Zn               3.4481380000        0.0493690000        1.9350220000    0   0   0
Zn               4.4043950000        2.4825670000        1.9350220000    0   0   0
Zn               5.3770663629        4.9094783184        1.9654924541
Zn               6.3169090000        7.3489610000        1.9350220000    0   0   0
Zn               6.7984978657        0.1374344011        2.2379083947
Zn               7.7472664940        2.5720029481        2.2226345049
Zn               8.7064326124        5.0054870833        2.2300173172
Zn               9.9064095919        7.3433388347        1.9647749549
Zn              10.3736000448        0.1372671791        2.2377145073
Zn              11.3446319771        2.5634610037        2.2223026875
Zn              12.2846701961        5.0032663148        2.2392166731
Zn              13.4644400000        7.3489610000        1.9350220000    0   0   0
Zn              14.1694340000        0.0493690000        1.9350220000    0   0   0
Zn              15.1256910000        2.4825670000        1.9350220000    0   0   0
Zn              16.0819440000        4.9157540000        1.9350220000    0   0   0
Zn              17.0382050000        7.3489610000        1.9350220000    0   0   0
Zn               0.8306230000        1.0780720000        1.3821490000    0   0   0
Zn               1.7868800000        3.5112700000        1.3821490000    0   0   0
Zn               2.7431370000        5.9444670000        1.3821490000    0   0   0
Zn               3.6993940000        8.3776640000        1.3821490000    0   0   0
Zn               4.4043880000        1.0780720000        1.3821490000    0   0   0
Zn               5.3606450000        3.5112700000        1.3821490000    0   0   0
Zn               6.3169020000        5.9444670000        1.3821490000    0   0   0
Zn               7.2731590000        8.3776640000        1.3821490000    0   0   0
Zn               7.9781540000        1.0780720000        1.3821490000    0   0   0
Zn               8.9344110000        3.5112700000        1.3821490000    0   0   0
Zn               9.8906680000        5.9444670000        1.3821490000    0   0   0
Zn              10.8469250000        8.3776640000        1.3821490000    0   0   0
Zn              11.5519190000        1.0780720000        1.3821490000    0   0   0
Zn              12.5081760000        3.5112700000        1.3821490000    0   0   0
Zn              13.4644330000        5.9444670000        1.3821490000    0   0   0
Zn              14.4206900000        8.3776640000        1.3821490000    0   0   0
O                8.9593001089        3.2386602579        4.4518234675
H                9.8798392884        2.7051247122        4.4603840106
H                8.7260332729        3.0419827995        5.3301417992



     Writing config-only to output data dir /home/ys/Research/PSID_server_room/qe/zinc_surface_water.relax/Zn_101_water/pwscf.save/ :
     XML data file
     NEW-OLD atomic charge density approx. for the potential

     negative rho (up, down):  3.346E-03 0.000E+00

     total cpu time spent up to now is     2960.3 secs

     Self-consistent Calculation

     iteration #  1     ecut=    50.00 Ry     beta= 0.70
     Davidson diagonalization with overlap
     ethr =  1.00E-06,  avg # of iterations = 11.0

     negative rho (up, down):  2.535E-03 0.000E+00

     total cpu time spent up to now is     3201.5 secs

     total energy              =  -29539.02938077 Ry
     estimated scf accuracy    <       0.26369331 Ry

     iteration #  2     ecut=    50.00 Ry     beta= 0.70
     Davidson diagonalization with overlap
     ethr =  2.05E-05,  avg # of iterations =  6.0

     negative rho (up, down):  2.728E-03 0.000E+00

     total cpu time spent up to now is     3298.1 secs

     total energy              =  -29538.87196916 Ry
     estimated scf accuracy    <       1.10485956 Ry

     iteration #  3     ecut=    50.00 Ry     beta= 0.70
     Davidson diagonalization with overlap
     ethr =  2.05E-05,  avg # of iterations =  6.0

     negative rho (up, down):  2.783E-03 0.000E+00

     total cpu time spent up to now is     3390.4 secs

     total energy              =  -29538.96855075 Ry
     estimated scf accuracy    <       1.46956225 Ry

     iteration #  4     ecut=    50.00 Ry     beta= 0.70
     Davidson diagonalization with overlap
     ethr =  2.05E-05,  avg # of iterations =  7.0

     negative rho (up, down):  2.791E-03 0.000E+00

     total cpu time spent up to now is     3476.1 secs

     total energy              =  -29539.07786849 Ry
     estimated scf accuracy    <       0.16086526 Ry

     iteration #  5     ecut=    50.00 Ry     beta= 0.70
     Davidson diagonalization with overlap
     ethr =  1.25E-05,  avg # of iterations =  6.0

     negative rho (up, down):  2.789E-03 0.000E+00

     total cpu time spent up to now is     3555.0 secs

     total energy              =  -29539.08737176 Ry
     estimated scf accuracy    <       0.17639053 Ry

     iteration #  6     ecut=    50.00 Ry     beta= 0.70
     Davidson diagonalization with overlap
     ethr =  1.25E-05,  avg # of iterations =  3.0

     negative rho (up, down):  2.796E-03 0.000E+00

     total cpu time spent up to now is     3630.7 secs

     total energy              =  -29539.10169090 Ry
     estimated scf accuracy    <       0.06368971 Ry

     iteration #  7     ecut=    50.00 Ry     beta= 0.70
     Davidson diagonalization with overlap
     ethr =  4.94E-06,  avg # of iterations =  2.0

     negative rho (up, down):  2.800E-03 0.000E+00

     total cpu time spent up to now is     3704.2 secs

     total energy              =  -29539.10713103 Ry
     estimated scf accuracy    <       0.00749261 Ry

     iteration #  8     ecut=    50.00 Ry     beta= 0.70
     Davidson diagonalization with overlap
     ethr =  5.82E-07,  avg # of iterations =  2.0

     negative rho (up, down):  2.801E-03 0.000E+00

     total cpu time spent up to now is     3777.5 secs

     total energy              =  -29539.10779412 Ry
     estimated scf accuracy    <       0.00599689 Ry

     iteration #  9     ecut=    50.00 Ry     beta= 0.70
     Davidson diagonalization with overlap
     ethr =  4.66E-07,  avg # of iterations =  2.0

     negative rho (up, down):  2.802E-03 0.000E+00

     total cpu time spent up to now is     3849.9 secs

     total energy              =  -29539.10832741 Ry
     estimated scf accuracy    <       0.00084348 Ry

     iteration # 10     ecut=    50.00 Ry     beta= 0.70
     Davidson diagonalization with overlap
     ethr =  6.55E-08,  avg # of iterations =  2.0

     negative rho (up, down):  2.802E-03 0.000E+00

     total cpu time spent up to now is     3923.2 secs

     total energy              =  -29539.10842030 Ry
     estimated scf accuracy    <       0.00014897 Ry

     iteration # 11     ecut=    50.00 Ry     beta= 0.70
     Davidson diagonalization with overlap
     ethr =  1.16E-08,  avg # of iterations =  2.0

     negative rho (up, down):  2.803E-03 0.000E+00

     total cpu time spent up to now is     3997.3 secs

     total energy              =  -29539.10842268 Ry
     estimated scf accuracy    <       0.00025929 Ry

     iteration # 12     ecut=    50.00 Ry     beta= 0.70
     Davidson diagonalization with overlap
     ethr =  1.16E-08,  avg # of iterations =  2.0

     negative rho (up, down):  2.803E-03 0.000E+00

     total cpu time spent up to now is     4070.0 secs

     total energy              =  -29539.10844692 Ry
     estimated scf accuracy    <       0.00004034 Ry

     iteration # 13     ecut=    50.00 Ry     beta= 0.70
     Davidson diagonalization with overlap
     ethr =  3.13E-09,  avg # of iterations =  2.0

     negative rho (up, down):  2.803E-03 0.000E+00

     total cpu time spent up to now is     4143.3 secs

     total energy              =  -29539.10844641 Ry
     estimated scf accuracy    <       0.00005191 Ry

     iteration # 14     ecut=    50.00 Ry     beta= 0.70
     Davidson diagonalization with overlap
     ethr =  3.13E-09,  avg # of iterations =  2.0

     negative rho (up, down):  2.803E-03 0.000E+00

     total cpu time spent up to now is     4215.9 secs

     total energy              =  -29539.10845104 Ry
     estimated scf accuracy    <       0.00001626 Ry

     iteration # 15     ecut=    50.00 Ry     beta= 0.70
     Davidson diagonalization with overlap
     ethr =  1.26E-09,  avg # of iterations =  2.0

     negative rho (up, down):  2.803E-03 0.000E+00

     total cpu time spent up to now is     4288.5 secs

     total energy              =  -29539.10845215 Ry
     estimated scf accuracy    <       0.00000375 Ry

     iteration # 16     ecut=    50.00 Ry     beta= 0.70
     Davidson diagonalization with overlap
     ethr =  2.92E-10,  avg # of iterations =  2.0

     negative rho (up, down):  2.803E-03 0.000E+00

     total cpu time spent up to now is     4361.3 secs

     total energy              =  -29539.10845229 Ry
     estimated scf accuracy    <       0.00000428 Ry

     iteration # 17     ecut=    50.00 Ry     beta= 0.70
     Davidson diagonalization with overlap
     ethr =  2.92E-10,  avg # of iterations =  2.0

     negative rho (up, down):  2.803E-03 0.000E+00

     total cpu time spent up to now is     4433.8 secs

     End of self-consistent calculation

          k = 0.0000 0.0000 0.0000 ( 65383 PWs)   bands (ev):

  -131.1709-131.1646-130.9837-130.9815-130.9493-130.9462-130.5121-130.4933
  -130.4737-130.4659-130.4582-130.4247-130.0092-130.0055-129.9902-129.9857
  -129.7958-129.7822-129.5581-129.5116-129.2788-129.2636-128.8869-128.8533
  -128.8050-128.7824-128.1587-127.9403-127.9234-127.9120-127.8965-127.8754
  -127.6416-127.0743-127.0696-127.0671-127.0606-127.0071-127.0000-126.9951
  -126.9945-126.9433-126.9375-126.9303-126.9294-126.9283-126.9037-126.9000
  -126.8794-126.8677-126.8559-126.8425-126.8414-126.8278-126.8211-126.8141
  -126.7982-126.7717-126.7188-125.8744-125.8604-125.8030-125.7822-125.7529
   -87.1822 -87.1671 -87.0793 -87.0788 -87.0544 -87.0294 -86.6975 -86.6865
   -86.6813 -86.6743 -86.3610 -86.2620 -86.1994 -86.1912 -86.1875 -86.1718
   -85.9659 -85.9394 -85.8673 -85.8602 -85.2365 -85.2181 -84.8855 -84.8790
   -84.8718 -84.8535 -84.7547 -84.7227 -84.5004 -84.4723 -84.4221 -84.4113
   -84.3596 -84.3221 -84.3187 -84.3144 -84.2825 -84.2793 -84.2693 -84.2424
   -84.1566 -84.1414 -84.1316 -84.1267 -84.0606 -84.0468 -84.0226 -83.9989
   -83.8663 -83.8427 -83.7811 -83.7786 -83.7663 -83.7538 -83.6553 -83.6442
   -83.6214 -83.6047 -83.4872 -83.4780 -83.4743 -83.4596 -83.4160 -83.2739
   -83.2164 -83.2056 -83.1992 -83.1806 -83.1716 -83.1545 -83.0628 -83.0506
   -82.9473 -82.9441 -82.8501 -82.6176 -82.5912 -82.5312 -82.5138 -82.3556
   -82.3119 -82.2783 -82.2563 -82.2026 -82.1925 -82.1448 -82.1315 -82.0564
   -82.0256 -82.0191 -81.9716 -81.9396 -81.8434 -81.8390 -81.8263 -81.8135
   -81.7963 -81.6037 -81.5539 -81.3015 -81.2615 -81.2478 -81.2378 -81.2187
   -81.1995 -81.1873 -81.1774 -81.1354 -81.1313 -81.1300 -81.1297 -81.1210
   -81.0895 -81.0751 -81.0379 -81.0358 -81.0290 -81.0288 -81.0269 -81.0269
   -81.0254 -81.0221 -81.0207 -81.0179 -81.0139 -80.9715 -80.9675 -80.9659
   -80.9622 -80.9567 -80.9553 -80.9547 -80.9526 -80.9469 -80.9394 -80.9128
   -80.9107 -80.9066 -80.8989 -80.8975 -80.8958 -80.8908 -80.8901 -80.8893
   -80.8866 -80.8815 -80.8772 -80.8703 -80.8659 -80.8646 -80.8618 -80.8604
   -80.8389 -80.8365 -80.8359 -80.8338 -80.8321 -80.8225 -80.8143 -80.8068
   -80.8056 -80.8034 -80.8020 -80.8004 -80.7927 -80.7890 -80.7887 -80.7823
   -80.7795 -80.7790 -80.7777 -80.7757 -80.7583 -80.7530 -80.7356 -80.7012
   -80.6939 -80.1922 -80.1781 -80.0931 -80.0894 -80.0633 -79.9490 -79.9429
   -79.9408 -79.9247 -79.9099 -79.8774 -79.8717 -79.8440 -79.8414 -79.8159
   -23.6098 -16.8544 -16.8505 -16.8161 -16.8129 -16.6196 -16.5807 -16.5657
   -16.5555 -15.6942 -15.6450 -15.5569 -15.4942 -15.3084 -15.2692 -14.8040
   -14.7978 -14.7907 -14.7748 -14.7636 -14.7588 -14.5528 -14.5368 -14.4489
   -14.4232 -14.4195 -14.4004 -14.2469 -14.2208 -14.1877 -14.1414 -14.0926
   -14.0719 -13.6664 -13.5916 -13.5837 -13.5335 -13.3220 -13.3109 -13.2839
   -13.2658 -13.2638 -13.2595 -13.2403 -13.2139 -13.2057 -13.1978 -13.1919
   -13.1813 -13.1471 -13.1377 -13.1153 -13.0921 -13.0833 -13.0391 -12.8738
   -12.8085 -12.7906 -12.7890 -12.7639 -12.7281 -12.7063 -12.7020 -12.6932
   -12.6848 -12.6789 -12.5811 -12.5611 -12.5144 -12.4941 -12.4796 -12.4330
   -12.2608 -12.1945 -12.1720 -12.1510 -12.1016 -12.0832 -12.0412 -12.0180
   -11.9276 -11.8501 -11.8275 -11.7612 -11.7414 -11.7299 -11.7098 -11.6425
   -11.6230 -11.5988 -11.5832 -11.5694 -11.5267 -11.4600 -11.3716 -11.3481
   -11.2970 -11.2227 -11.1544 -11.1178 -11.0895 -11.0429 -11.0068 -10.8915
   -10.8428 -10.8132 -10.7813 -10.7292 -10.7040 -10.6653 -10.6176 -10.5992
   -10.5927 -10.5709 -10.5392 -10.5059 -10.4763 -10.4572 -10.3863 -10.3332
   -10.2619 -10.2316 -10.1934 -10.1789 -10.1124 -10.0942 -10.0076  -9.9547
    -9.9539  -9.9382  -9.8810  -9.8233  -9.7627  -9.6935  -9.6781  -9.6707
    -9.6500  -9.6376  -9.6318  -9.5956  -9.5563  -9.5199  -9.4758  -9.4560
    -9.4393  -9.3803  -9.3684  -9.3562  -9.3133  -9.2808  -9.2445  -9.1986
    -9.1758  -9.0949  -9.0778  -9.0124  -8.9818  -8.9782  -8.9626  -8.9354
    -8.8707  -8.8340  -8.7931  -8.7618  -8.6982  -8.6586  -8.6545  -8.6405
    -8.5758  -8.5619  -8.5548  -8.5035  -8.4674  -8.4496  -8.4188  -8.3979
    -8.3603  -8.2958  -8.2792  -8.2108  -8.1947  -8.1589  -8.1247  -8.0749
    -8.0652  -8.0486  -8.0263  -8.0105  -7.9976  -7.9899  -7.9734  -7.9271
    -7.9015  -7.8938  -7.8808  -7.8579  -7.8468  -7.8248  -7.8122  -7.7575
    -7.7389  -7.7334  -7.7007  -7.6948  -7.6840  -7.6641  -7.6573  -7.6440
    -7.6404  -7.6313  -7.6085  -7.5968  -7.5893  -7.5787  -7.5696  -7.5582
    -7.5409  -7.5401  -7.5099  -7.5055  -7.4960  -7.4907  -7.4758  -7.4615
    -7.4505  -7.4401  -7.4345  -7.4244  -7.4130  -7.3946  -7.3752  -7.3729
    -7.3678  -7.3621  -7.3463  -7.3260  -7.3218  -7.3166  -7.3048  -7.3023
    -7.2959  -7.2819  -7.2705  -7.2401  -7.2338  -7.2010  -7.1962  -7.1727
    -7.1511  -7.1367  -7.1215  -7.1142  -7.1057  -7.0979  -7.0879  -7.0799
    -7.0710  -7.0591  -7.0499  -7.0448  -7.0348  -7.0296  -7.0228  -6.9892
    -6.9797  -6.9702  -6.9573  -6.9361  -6.9241  -6.9101  -6.9045  -6.8939
    -6.8838  -6.8690  -6.8576  -6.8531  -6.8343  -6.8226  -6.8156  -6.8095
    -6.8009  -6.7715  -6.7626  -6.7576  -6.7460  -6.7386  -6.7099  -6.6894
    -6.6788  -6.6726  -6.6526  -6.6317  -6.6288  -6.6071  -6.5926  -6.5745
    -6.5617  -6.5588  -6.5436  -6.5255  -6.5139  -6.5110  -6.5001  -6.4734
    -6.4508  -6.4419  -6.4186  -6.4053  -6.3976  -6.3857  -6.3746  -6.3623
    -6.3503  -6.3371  -6.3230  -6.2928  -6.2587  -6.2229  -6.2111  -6.1991
    -6.1242  -6.1190  -6.1031  -6.0977  -6.0498  -5.9333  -5.8878  -5.8176
    -5.7955  -5.7917  -5.7673  -5.7399  -5.7331  -5.7040  -5.6852  -5.6736
    -5.6500  -5.3610  -5.2597  -5.2206  -4.9991  -4.8867  -4.8574  -4.7755
    -4.5696  -4.5315  -4.4796  -4.2556  -4.2204  -4.1103  -4.1015  -4.0101
    -3.9553  -3.8491  -3.2300  -2.8482  -2.6830  -2.6401  -2.5857  -2.4421
    -2.4267  -2.3202  -2.1613  -1.9435  -1.4941  -1.2612  -1.2566  -0.6323
    -0.5259  -0.3705  -0.2460  -0.2131  -0.1103  -0.0296   0.0358   0.1094
     0.3158   0.3541   0.4608   0.5278   0.5704   0.6758   0.7276   1.1888
     1.2529   1.2878   1.4010   1.5007   1.5181   1.5895   1.6743   1.7285
     1.7369   1.8060   1.8423   1.8889   1.9690   2.2836   2.3106   2.3553
     2.4683   2.5968   2.6415   2.7415   2.8448   2.9105   2.9761   3.1248
     3.2026   3.2713   3.4610   3.5464   3.6564   3.7336   3.7715   3.8689
     3.9336   4.1284   4.1605   4.2626   4.3043   4.3945   4.5063   4.6486
     4.7254   4.9157   4.9361   5.0313   5.1155   5.1705   5.3094   5.3337
     5.3639   5.4288   5.5049   5.5479   5.6445   5.6668   5.7268   5.7620
     5.9122   6.0092   6.0660   6.0865   6.1013   6.1808   6.2349   6.2513
     6.2674   6.2914   6.3054   6.3914   6.4262   6.4708   6.4836   6.4990
     6.5363   6.5904   6.6574   6.7357   6.7661   6.7939   6.8526   6.8713
     6.8944   6.9195   6.9384   7.0027   7.0576   7.0780   7.1132   7.1280
     7.1764   7.2409   7.2780   7.2807   7.3408   7.3616   7.3843   7.4037
     7.4181   7.5232   7.5535   7.5906   7.7361   7.8245   7.8647   7.9038
     7.9289   7.9682   7.9918   8.0350   8.0645   8.0889   8.1198   8.1283
     8.1507   8.1799   8.2049   8.2271   8.3029   8.3689   8.3750   8.3996
     8.4225   8.4511   8.4983   8.5216   8.5526   8.5685   8.5839   8.5968
     8.6025   8.6207   8.6707   8.6911   8.7555

     the Fermi energy is     1.5014 ev

!    total energy              =  -29539.10845220 Ry
     estimated scf accuracy    <       0.00000069 Ry
     smearing contrib. (-TS)   =      -0.02069421 Ry
     internal energy E=F+TS    =  -29539.08775799 Ry

     The total energy is F=E-TS. E is the sum of the following terms:
     one-electron contribution = -235711.08386313 Ry
     hartree contribution      =  117636.92424098 Ry
     xc contribution           =   -2739.39994415 Ry
     ewald contribution        =   91283.98853326 Ry
     one-center paw contrib.   =      -9.51672494 Ry

     convergence has been achieved in  17 iterations

     negative rho (up, down):  2.803E-03 0.000E+00

     Forces acting on atoms (cartesian axes, Ry/au):

     atom    1 type  1   force =     1.10780455   -0.43676343   -1.38472085
     atom    2 type  1   force =     1.10828018   -0.43506403   -1.38516376
     atom    3 type  1   force =     1.11207358   -0.43813802   -1.38066994
     atom    4 type  1   force =     1.10759952   -0.43405410   -1.38583142
     atom    5 type  1   force =     1.11564506   -0.44214439   -1.36888380
     atom    6 type  1   force =     1.11692244   -0.43467432   -1.36827317
     atom    7 type  1   force =     1.11248631   -0.44024012   -1.36760028
     atom    8 type  1   force =     1.10912706   -0.43252231   -1.37158395
     atom    9 type  1   force =     1.09021875   -0.42488479   -1.34038363
     atom   10 type  1   force =     1.08871419   -0.43525253   -1.33731409
     atom   11 type  1   force =     1.09893448   -0.43622059   -1.34451077
     atom   12 type  1   force =     1.09482999   -0.42322934   -1.35389962
     atom   13 type  1   force =     1.07779371   -0.41854221   -1.35652965
     atom   14 type  1   force =     1.07250733   -0.42917364   -1.35576489
     atom   15 type  1   force =     1.08194997   -0.42672071   -1.36396972
     atom   16 type  1   force =     1.08987831   -0.42455491   -1.36403832
     atom   17 type  1   force =    -1.10598791    0.43177791    1.38471681
     atom   18 type  1   force =    -1.10481976    0.43630521    1.38412892
     atom   19 type  1   force =    -1.17761753    0.46035998    1.40904102
     atom   20 type  1   force =    -1.10763652    0.43786594    1.38469690
     atom   21 type  1   force =    -0.29644527    0.11026343    0.41849282
     atom   22 type  1   force =    -0.30827769    0.11510443    0.39993311
     atom   23 type  1   force =    -0.29850567    0.12373074    0.40824583
     atom   24 type  1   force =    -1.17560726    0.46544241    1.40960701
     atom   25 type  1   force =    -0.30566576    0.08036588    0.39952643
     atom   26 type  1   force =    -0.10313813    0.35003258   -0.01269724
[...]

  -131.5120-131.4239-131.3402-131.2827-131.1988-130.8981-130.8301-130.8239
  -130.5402-130.4164-130.3637-130.3085-130.2580-130.1285-129.7833-129.7018
  -128.9478-128.7744-128.3906-128.2016-128.0415-127.9699-127.6367-127.6076
  -127.4505-127.4267-127.4231-127.4050-127.3877-127.3157-127.3155-127.2483
  -127.2207-127.2123-127.2087-127.2020-127.1976-127.1903-127.1724-127.1552
  -127.1123-127.0608-126.8249-126.7534-126.7493-126.7478-126.6654-126.6560
  -126.6272-126.6085-126.6062-126.5731-126.1301-125.9772-125.9309-125.9162
  -125.8656-125.6442-125.6253-125.5765-125.2582-125.1142-125.0744-125.0116
   -87.5249 -87.4546 -87.4338 -87.4002 -87.2646 -87.0362 -87.0227 -86.9777
   -86.6777 -86.5444 -86.4962 -86.4280 -86.3178 -86.2830 -86.1568 -85.8108
   -85.5558 -85.4162 -85.2240 -85.1823 -85.1037 -84.8549 -84.7541 -84.6882
   -84.6701 -84.6184 -84.6076 -84.5543 -84.4763 -84.4642 -84.4046 -84.3735
   -84.3663 -84.2607 -84.1977 -84.1865 -84.1340 -84.0765 -84.0414 -83.9853
   -83.8784 -83.8556 -83.8273 -83.8162 -83.7897 -83.6226 -83.5762 -83.5574
   -83.5295 -83.5144 -83.4450 -83.3711 -83.2454 -83.2112 -83.0785 -83.0762
   -82.9368 -82.8618 -82.7901 -82.6712 -82.5893 -82.5322 -82.4793 -82.4224
   -82.4188 -82.3853 -81.8896 -81.8685 -81.8444 -81.7896 -81.6516 -81.5994
   -81.5726 -81.5483 -81.5265 -81.4826 -81.4668 -81.4605 -81.4430 -81.4421
   -81.4348 -81.4288 -81.4229 -81.4089 -81.4047 -81.3945 -81.3853 -81.3775
   -81.3723 -81.3521 -81.3467 -81.3415 -81.3260 -81.3097 -81.2884 -81.2711
   -81.2666 -81.2641 -81.2616 -81.2295 -81.2236 -81.1974 -81.1970 -81.1944
   -81.1940 -81.1840 -81.1818 -81.1807 -81.1734 -81.1688 -81.1686 -81.1643
   -81.1628 -81.1606 -81.1504 -81.1460 -81.1384 -81.1331 -81.1330 -81.1192
   -81.1165 -81.1032 -81.0736 -81.0553 -81.0411 -81.0114 -80.9021 -80.8339
   -80.8067 -80.8030 -80.7952 -80.7807 -80.7758 -80.7686 -80.7605 -80.7520
   -80.7440 -80.7428 -80.7224 -80.7161 -80.7126 -80.7098 -80.7037 -80.6975
   -80.6889 -80.6769 -80.6595 -80.6480 -80.6414 -80.6362 -80.5826 -80.5621
   -80.3983 -80.3671 -80.3244 -80.2837 -80.2796 -80.2671 -80.2488 -80.1734
   -80.1575 -80.1390 -80.1294 -80.1013 -80.0719 -80.0663 -80.0479 -80.0424
   -80.0227 -79.9960 -79.9876 -79.8616 -79.8493 -79.8215 -79.7631 -79.7495
   -79.7482 -79.7416 -79.7318 -79.6820 -79.4565 -79.4005 -79.3899 -79.3262
   -79.2867 -79.2514 -79.2417 -79.2343 -79.2187 -79.1900 -79.1548 -79.1172
   -18.9109 -17.1756 -17.1719 -17.0251 -16.9956 -16.9294 -16.9286 -16.2770
   -16.0317 -15.9965 -15.2513 -15.1618 -15.1420 -15.1291 -15.1015 -14.9646
   -14.8430 -14.8250 -14.7758 -14.7642 -14.6524 -14.6485 -14.5905 -14.5453
   -14.4906 -14.4663 -14.3146 -14.0025 -13.8864 -13.6131 -13.6051 -13.5880
   -13.5380 -13.5104 -13.4910 -13.4761 -13.4685 -13.4448 -13.3542 -13.3522
   -13.2122 -13.2084 -13.1190 -13.0538 -13.0320 -13.0243 -13.0169 -12.8611
   -12.7694 -12.6426 -12.4645 -12.4380 -12.3358 -12.2724 -12.1938 -12.1233
   -12.0464 -12.0441 -11.9820 -11.9388 -11.9167 -11.8582 -11.7503 -11.6207
   -11.5911 -11.5283 -11.4283 -11.3865 -11.3507 -11.3288 -11.2915 -11.2397
   -11.2239 -11.2014 -11.1915 -11.1730 -11.1233 -11.0997 -11.0879 -11.0843
   -10.9785 -10.9564 -10.9455 -10.9023 -10.8862 -10.8760 -10.8533 -10.8232
   -10.7609 -10.7254 -10.6640 -10.6221 -10.6013 -10.5604 -10.5248 -10.5081
   -10.4849 -10.4513 -10.4421 -10.4246 -10.3994 -10.3753 -10.3674 -10.3256
   -10.2940 -10.2832 -10.2689 -10.2147 -10.1660 -10.1335 -10.1039  -9.9962
    -9.9779  -9.9596  -9.8591  -9.8448  -9.7531  -9.6616  -9.6138  -9.5845
    -9.5719  -9.4107  -9.2661  -9.2353  -9.1649  -9.0658  -8.9743  -8.9307
    -8.9096  -8.8728  -8.8514  -8.8332  -8.7763  -8.7492  -8.7407  -8.6670
    -8.5973  -8.5702  -8.5110  -8.5024  -8.4280  -8.4123  -8.4038  -8.3742
    -8.3702  -8.3463  -8.3283  -8.3095  -8.2680  -8.2622  -8.2377  -8.2254
    -8.1985  -8.1533  -8.1250  -8.0897  -8.0845  -8.0684  -8.0515  -8.0441
    -8.0324  -8.0146  -7.9943  -7.9840  -7.9654  -7.9574  -7.9166  -7.9152
    -7.9113  -7.8904  -7.8808  -7.8753  -7.8671  -7.8392  -7.8299  -7.8165
    -7.8088  -7.7846  -7.7752  -7.7702  -7.7573  -7.7558  -7.7406  -7.7302
    -7.7182  -7.6942  -7.6934  -7.6767  -7.6728  -7.6428  -7.6374  -7.6113
    -7.6067  -7.5924  -7.5804  -7.5722  -7.5516  -7.5467  -7.5408  -7.5264
    -7.5074  -7.4820  -7.4669  -7.4537  -7.4405  -7.4229  -7.4197  -7.4158
    -7.4023  -7.3945  -7.3859  -7.3747  -7.3643  -7.3509  -7.3487  -7.3375
    -7.3344  -7.3249  -7.3194  -7.3107  -7.2960  -7.2823  -7.2803  -7.2681
    -7.2516  -7.2438  -7.2329  -7.2202  -7.2117  -7.2100  -7.1995  -7.1913
    -7.1695  -7.1577  -7.1488  -7.1366  -7.1261  -7.1117  -7.1028  -7.0875
    -7.0830  -7.0797  -7.0519  -7.0436  -7.0365  -7.0285  -7.0139  -6.9997
    -6.9966  -6.9871  -6.9674  -6.9600  -6.9391  -6.9190  -6.8984  -6.8889
    -6.8852  -6.8712  -6.8548  -6.8488  -6.8322  -6.8196  -6.8174  -6.8080
    -6.7997  -6.7609  -6.7489  -6.7219  -6.7106  -6.6786  -6.6704  -6.6391
    -6.6296  -6.5931  -6.5536  -6.5477  -6.5246  -6.5014  -6.4904  -6.4688
    -6.4548  -6.4481  -6.4208  -6.4166  -6.3983  -6.3880  -6.3670  -6.3629
    -6.3537  -6.3338  -6.3172  -6.3015  -6.2721  -6.2445  -6.2211  -6.2074
    -6.1626  -6.1585  -6.1545  -6.1274  -6.1197  -6.1028  -6.0930  -6.0809
    -6.0572  -6.0514  -6.0450  -6.0338  -5.9917  -5.9905  -5.9864  -5.9816
    -5.9630  -5.9336  -5.9215  -5.9124  -5.9067  -5.8882  -5.8741  -5.8604
    -5.8354  -5.8171  -5.8098  -5.7952  -5.7857  -5.7700  -5.7490  -5.7384
    -5.7247  -5.7199  -5.7061  -5.6512  -5.6064  -5.5286  -5.5151  -5.4747
    -5.3998  -5.2673  -5.1565  -5.1041  -4.9688  -4.9480  -4.7811  -4.6352
    -4.4196  -4.2421  -4.0775  -4.0051  -3.9082  -3.7406  -3.6397  -3.6190
    -3.3763  -3.2739  -3.1214  -2.8725  -2.7393  -2.6723  -2.3482  -2.2254
    -2.1372  -2.0502  -1.9607  -1.8626  -1.6415  -1.4843  -1.3746  -1.0638
    -0.9485  -0.8548  -0.7566  -0.6235  -0.5282  -0.3019  -0.0932  -0.0071
     0.0764   0.1676   0.3501   0.3801   0.4729   0.6918   0.7479   0.9063
     0.9284   1.1317   1.2064   1.2928   1.3503   1.5004   1.5322   1.5842
     1.6383   1.7398   1.7690   1.8488   1.9017   2.0050   2.0413   2.2698
     2.2985   2.4093   2.4399   2.6225   2.6447   2.6953   2.8140   2.8297
     2.9373   3.0530   3.0733   3.2995   3.4009   3.5628   3.6262   3.7254
     3.8158   3.9649   4.0119   4.0256   4.0956   4.2041   4.2878   4.4106
     4.4751   4.5536   4.6225   4.6943   4.7133   4.8436   4.8854   4.9869
     5.0193   5.0987   5.1316   5.1778   5.2541   5.2806   5.4699   5.4873
     5.6299   5.7456   5.8031   5.8354   5.8860   5.9155   5.9928   6.0340
     6.0569   6.1581   6.1821   6.2168   6.2418   6.2670   6.3289   6.4027
     6.4143   6.4617   6.4958   6.5143   6.5519   6.5837   6.6467   6.7070
     6.7475   6.7596   6.7750   6.8402   6.9001   6.9266   6.9397   7.0003
     7.0812   7.1268   7.1528   7.2572   7.2777   7.3334   7.3515   7.3896
     7.3966   7.4728   7.5405   7.5499   7.5697   7.5953   7.6562   7.6663
     7.7208   7.7455   7.8124   7.8235   7.8886   7.9396   7.9932   8.0121
     8.0831   8.0963   8.1307   8.1340   8.1707   8.2134   8.2548   8.2771
     8.3466   8.3508   8.3972   8.4233   8.4761   8.4820   8.4899   8.5002
     8.5383   8.5599   8.5653   8.5830   8.6060

     the Fermi energy is     1.3293 ev

!    total energy              =  -29547.58429360 Ry
     estimated scf accuracy    <       0.00000065 Ry
     smearing contrib. (-TS)   =      -0.01591477 Ry
     internal energy E=F+TS    =  -29547.56837883 Ry

     The total energy is F=E-TS. E is the sum of the following terms:
     one-electron contribution = -224009.62426000 Ry
     hartree contribution      =  111801.13463608 Ry
     xc contribution           =   -2732.78644040 Ry
     ewald contribution        =   85403.23872820 Ry
     one-center paw contrib.   =      -9.53104271 Ry

     convergence has been achieved in  18 iterations

     negative rho (up, down):  2.472E-03 0.000E+00

     Forces acting on atoms (cartesian axes, Ry/au):

     atom    1 type  1   force =     1.10961084   -0.44196035   -1.39377708
     atom    2 type  1   force =     1.10140666   -0.42797821   -1.39369776
     atom    3 type  1   force =     1.12146989   -0.44366966   -1.36473050
     atom    4 type  1   force =     1.09923340   -0.43324618   -1.39110006
     atom    5 type  1   force =     1.14054580   -0.44628062   -1.34513441
     atom    6 type  1   force =     1.13704464   -0.43408826   -1.34550677
     atom    7 type  1   force =     1.12494817   -0.45966964   -1.33146615
     atom    8 type  1   force =     1.13227163   -0.43824473   -1.34650210
     atom    9 type  1   force =     1.09478273   -0.43442279   -1.28862868
     atom   10 type  1   force =     1.08735385   -0.43492591   -1.28217317
     atom   11 type  1   force =     1.10733988   -0.43008239   -1.29719756
     atom   12 type  1   force =     1.06910961   -0.41661960   -1.32814226
     atom   13 type  1   force =     1.06599033   -0.42081222   -1.34574723
     atom   14 type  1   force =     1.06854973   -0.41624397   -1.35283197
     atom   15 type  1   force =     1.08893168   -0.43430678   -1.37637930
     atom   16 type  1   force =     1.09334029   -0.42212266   -1.37377391
     atom   17 type  1   force =    -1.10590781    0.43112151    1.39586936
     atom   18 type  1   force =    -1.10728907    0.43383645    1.39513019
     atom   19 type  1   force =    -0.68882628    0.26493799    0.26567309
     atom   20 type  1   force =    -1.10259818    0.43707267    1.39759941
     atom   21 type  1   force =    -0.07191312    0.02667981    0.08358943
     atom   22 type  1   force =    -0.08285216   -0.00282616    0.12775054
     atom   23 type  1   force =    -0.05172556    0.06144713    0.12934934
     atom   24 type  1   force =    -0.91888624    0.38751410    0.31353077
     atom   25 type  1   force =    -0.05004394    0.02904993    0.09352719
     atom   26 type  1   force =     0.10547299   -0.00830022   -0.02546455
     atom   27 type  1   force =    -0.04865586    0.08312871    0.15816738
     atom   28 type  1   force =    -1.01507544    0.47045918    1.38830127
     atom   29 type  1   force =    -1.12580842    0.44020974    1.37974617
     atom   30 type  1   force =    -1.12383557    0.44408639    1.38251887
     atom   31 type  1   force =    -1.11705930    0.43113833    1.39292375
     atom   32 type  1   force =    -1.10667984    0.44039016    1.39089379
     atom   33 type  1   force =     0.00885400   -0.01428449    0.07721727
     atom   34 type  1   force =     0.00276691    0.01037418    0.07012673
     atom   35 type  1   force =     0.65917414   -0.27294383    0.50381981
     atom   36 type  1   force =    -0.00368715   -0.00095433    0.08122739
     atom   37 type  1   force =     0.06781614   -0.03136264    0.00432565
     atom   38 type  1   force =     0.08725413   -0.07430384    0.00099990
     atom   39 type  1   force =     0.06601025    0.03315966   -0.02418045
     atom   40 type  1   force =     0.86291540   -0.31113624    0.36802380
     atom   41 type  1   force =     0.05763006   -0.02036107   -0.00704615
     atom   42 type  1   force =     0.00219947   -0.00251126    0.15386696
     atom   43 type  1   force =     0.08946029   -0.06034725   -0.00992430
     atom   44 type  1   force =    -0.01499766    0.01386881    0.05967163
     atom   45 type  1   force =    -0.01972063    0.01026082    0.07938959
     atom   46 type  1   force =    -0.01737900    0.00706526    0.08935195
     atom   47 type  1   force =    -0.01300446    0.01689611    0.09372010
     atom   48 type  1   force =    -0.01920173   -0.00036727    0.09506076
     atom   49 type  1   force =    -0.01211590    0.00332339   -0.08783579
     atom   50 type  1   force =     0.00427663   -0.00101196   -0.09685032
     atom   51 type  1   force =     0.01602942   -0.00533412   -0.09284935
     atom   52 type  1   force =    -0.00058550   -0.00089933   -0.10253047
     atom   53 type  1   force =     0.05064850   -0.01815911   -0.07449010
     atom   54 type  1   force =    -0.14048537    1.32474381    0.22682441
     atom   55 type  1   force =    -0.98580610   -0.87075946    0.21575448
     atom   56 type  1   force =     0.02529300   -0.00589709   -0.08426403
     atom   57 type  1   force =    -1.06655611    0.42804239    1.22093979
     atom   58 type  1   force =    -1.06817015    0.41441548    1.20927893
     atom   59 type  1   force =    -1.21210695    0.12189268    0.88423308
     atom   60 type  1   force =    -0.99384650    0.71861233    0.91263407
     atom   61 type  1   force =    -1.08935498    0.34511118    1.10833596
     atom   62 type  1   force =    -1.07188339    0.47018516    1.15496663
     atom   63 type  1   force =    -1.12382524   -1.22378988    0.55659807
     atom   64 type  1   force =    -0.00764193    1.65765467    0.56268818
     atom   65 type  2   force =    -0.18392599   -0.07130127    0.25301379
     atom   66 type  3   force =     0.01442161   -0.06854003    0.01095809
     atom   67 type  3   force =    -0.00070054    0.04338684   -0.12537313

     Total force =     1.430643     Total SCF correction =     0.005273
     Energy error            =      2.5E+00 Ry
     Gradient error          =      8.6E-01 Ry/Bohr

     number of scf cycles    =   6
     number of bfgs steps    =   5

     energy             old  =  -29545.0914684402 Ry
     energy             new  =  -29547.5842935971 Ry

     CASE: energy            _new < energy            _old

     new trust radius        =       0.8000000000 bohr
     new conv_thr            =       0.0000010000 Ry


ATOMIC_POSITIONS (angstrom)
Zn               1.7868870000        0.7022520000        0.2764250000    0   0   0
Zn               2.7431440000        3.1354490000        0.2764250000    0   0   0
Zn               3.6994050000        5.5686560000        0.2764250000    0   0   0
Zn               4.6556580000        8.0018440000        0.2764250000    0   0   0
Zn               5.3606520000        0.7022520000        0.2764250000    0   0   0
Zn               6.3169090000        3.1354490000        0.2764250000    0   0   0
Zn               7.2731700000        5.5686560000        0.2764250000    0   0   0
Zn               8.2294230000        8.0018440000        0.2764250000    0   0   0
Zn               8.9344180000        0.7022520000        0.2764250000    0   0   0
Zn               9.8906750000        3.1354490000        0.2764250000    0   0   0
Zn              10.8469360000        5.5686560000        0.2764250000    0   0   0
Zn              11.8031890000        8.0018440000        0.2764250000    0   0   0
Zn              12.5081830000        0.7022520000        0.2764250000    0   0   0
Zn              13.4644400000        3.1354490000        0.2764250000    0   0   0
Zn              14.4207010000        5.5686560000        0.2764250000    0   0   0
Zn              15.3769540000        8.0018440000        0.2764250000    0   0   0
Zn               2.4918740000        0.4251900000        3.0407460000    0   0   0
Zn               3.4481310000        2.8583870000        3.0407460000    0   0   0
Zn               4.4043880000        5.2915840000        3.0407460000    0   0   0
Zn               5.3606450000        7.7247820000        3.0407460000    0   0   0
Zn               4.7587859280        0.9180201359        4.8253104670
Zn               5.6578974612        3.3462770577        4.8069645746
Zn               6.6733996534        5.8572959312        4.8259986181
Zn               8.9344100000        7.7247820000        3.0407460000    0   0   0
Zn               8.3191202828        0.8238652170        4.7681119689
Zn               9.7809268769        4.0376332152        3.8448008532
Zn              10.3066327160        5.9353794318        4.8251405234
Zn              12.5081760000        7.7247820000        3.0407460000    0   0   0
Zn              13.2131700000        0.4251900000        3.0407460000    0   0   0
Zn              14.1694270000        2.8583870000        3.0407460000    0   0   0
Zn              15.1256840000        5.2915840000        3.0407460000    0   0   0
Zn              16.0819410000        7.7247820000        3.0407460000    0   0   0
Zn               3.4481380000        0.0493690000        1.9350220000    0   0   0
Zn               4.4043950000        2.4825670000        1.9350220000    0   0   0
Zn               6.1666831840        4.6135020371        2.9335309158
Zn               6.3169090000        7.3489610000        1.9350220000    0   0   0
Zn               6.2493512280        0.3461421075        3.2619615801
Zn               7.1187131446        2.7823908946        3.1276936160
Zn               8.0782810129        5.2921752889        3.1492744653
Zn              10.5925902818        7.0384160314        3.0539270578
Zn               9.8357672254        0.3701970267        3.2315081004
Zn              11.1740844189        2.4976124921        3.0737542246
Zn              11.7578674073        5.1804811880        3.2537515158
Zn              13.4644400000        7.3489610000        1.9350220000    0   0   0
Zn              14.1694340000        0.0493690000        1.9350220000    0   0   0
Zn              15.1256910000        2.4825670000        1.9350220000    0   0   0
Zn              16.0819440000        4.9157540000        1.9350220000    0   0   0
Zn              17.0382050000        7.3489610000        1.9350220000    0   0   0
Zn               0.8306230000        1.0780720000        1.3821490000    0   0   0
Zn               1.7868800000        3.5112700000        1.3821490000    0   0   0
Zn               2.7431370000        5.9444670000        1.3821490000    0   0   0
Zn               3.6993940000        8.3776640000        1.3821490000    0   0   0
Zn               4.4043880000        1.0780720000        1.3821490000    0   0   0
Zn               5.3606450000        3.5112700000        1.3821490000    0   0   0
Zn               6.3169020000        5.9444670000        1.3821490000    0   0   0
Zn               7.2731590000        8.3776640000        1.3821490000    0   0   0
Zn               7.9781540000        1.0780720000        1.3821490000    0   0   0
Zn               8.9344110000        3.5112700000        1.3821490000    0   0   0
Zn               9.8906680000        5.9444670000        1.3821490000    0   0   0
Zn              10.8469250000        8.3776640000        1.3821490000    0   0   0
Zn              11.5519190000        1.0780720000        1.3821490000    0   0   0
Zn              12.5081760000        3.5112700000        1.3821490000    0   0   0
Zn              13.4644330000        5.9444670000        1.3821490000    0   0   0
Zn              14.4206900000        8.3776640000        1.3821490000    0   0   0
O                8.3266450882        3.4597575773        4.8042886405
H                9.7469106426        2.2006499253        5.4161471585
H                8.5622050461        2.9590746336        5.8563549477



     Writing config-only to output data dir /home/ys/Research/PSID_server_room/qe/zinc_surface_water.relax/Zn_101_water/pwscf.save/ :
     XML data file
     NEW-OLD atomic charge density approx. for the potential

     negative rho (up, down):  3.151E-03 0.000E+00

     total cpu time spent up to now is     9356.2 secs

     Self-consistent Calculation

     iteration #  1     ecut=    50.00 Ry     beta= 0.70
     Davidson diagonalization with overlap
--------------------------------------------------------------------------
Primary job  terminated normally, but 1 process returned
a non-zero exit code. Per user-direction, the job has been aborted.
--------------------------------------------------------------------------
--------------------------------------------------------------------------
mpirun noticed that process rank 2 with PID 0 on node psid10 exited on signal 9 (Killed).
--------------------------------------------------------------------------
