
                                 *****************
                                 * O   R   C   A *
                                 *****************

                                            #,                                       
                                            ###                                      
                                            ####                                     
                                            #####                                    
                                            ######                                   
                                           ########,                                 
                                     ,,################,,,,,                         
                               ,,#################################,,                 
                          ,,##########################################,,             
                       ,#########################################, ''#####,          
                    ,#############################################,,   '####,        
                  ,##################################################,,,,####,       
                ,###########''''           ''''###############################       
              ,#####''   ,,,,##########,,,,          '''####'''          '####       
            ,##' ,,,,###########################,,,                        '##       
           ' ,,###''''                  '''############,,,                           
         ,,##''                                '''############,,,,        ,,,,,,###''
      ,#''                                            '''#######################'''  
     '                                                          ''''####''''         
             ,#######,   #######,   ,#######,      ##                                
            ,#'     '#,  ##    ##  ,#'     '#,    #''#        ,####,   ,####,        
            ##       ##  ##   ,#'  ##            #'  '#       #'       #'  '#        
            ##       ##  #######   ##           ,######,      #####,   #    #        
            '#,     ,#'  ##    ##  '#,     ,#' ,#      #,     #,   #   #,  ,#        
             '#######'   ##     ##  '#######'  #'      '#     '####' # '####'        



                #########################################################
                #                        -***-                          #
                #          Department of theory and spectroscopy        #
                #                                                       #
                #                      Frank Neese                      #
                #                                                       #
                #     Directorship, Architecture, Infrastructure        #
                #                    SHARK, DRIVERS                     #
                #        Core code/Algorithms in most modules           #
                #                                                       #
                #        Max Planck Institute fuer Kohlenforschung      #
                #                Kaiser Wilhelm Platz 1                 #
                #                 D-45470 Muelheim/Ruhr                 #
                #                      Germany                          #
                #                                                       #
                #                  All rights reserved                  #
                #                        -***-                          #
                #########################################################


                         Program Version 6.0.1  -  RELEASE   -


 With contributions from (in alphabetic order):
[Max-Planck-Institut fuer Kohlenforschung]                               
  Daniel Aravena         : Magnetic Suceptibility                        
  Michael Atanasov       : Ab Initio Ligand Field Theory (pilot matlab implementation)
  Alexander A. Auer      : GIAO ZORA, VPT2 properties, NMR spectrum      
  Ute Becker             : All parallelization in ORCA, NUMFREQ, NUMCALC 
  Giovanni Bistoni       : ED, misc. LED, open-shell LED, HFLD           
  Martin Brehm           : Molecular dynamics                            
  Dmytro Bykov           : pre 5.0 version of the SCF Hessian            
  Marcos Casanova-Páez   : Triplet and SCS-CIS(D). UHF-(DLPNO)-IP/EA/STEOM-CCSD. UHF-CVS-IP/STEOM-CCSD   
  Vijay G. Chilkuri      : MRCI spin determinant printing, contributions to CSF-ICE 
  Pauline Colinet        : FMM embedding                                 
  Dipayan Datta          : RHF DLPNO-CCSD density                        
  Achintya Kumar Dutta   : EOM-CC, STEOM-CC                              
  Nicolas Foglia         : Exact transition moments, OPA infrastructure, MCD improvements    
  Dmitry Ganyushin       : Spin-Orbit,Spin-Spin,Magnetic field MRCI      
  Miquel Garcia-Rates    : C-PCM and meta-GGA Hessian, CCSD/C-PCM, Gaussian charge scheme 
  Tiago L. C. Gouveia    : GS-ROHF, GS-ROCIS                             
  Yang Guo               : DLPNO-NEVPT2, F12-NEVPT2, CIM, IAO-localization        
  Andreas Hansen         : Spin unrestricted coupled pair/coupled cluster methods 
  Ingolf Harden          : AUTO-CI MPn and infrastructure                
  Benjamin Helmich-Paris : MC-RPA, TRAH-(SCF,CASSCF), AVAS, COSX integrals, SCF dyn. polar. 
  Lee Huntington         : MR-EOM, pCC                                   
  Robert Izsak           : Overlap fitted RIJCOSX, COSX-SCS-MP3, EOM     
  Riya Kayal             : Wick's Theorem for AUTO-CI, AUTO-CI UHF-CCSDT 
  Emily Kempfer          : AUTO-CI, RHF CISDT and CCSDT                  
  Christian Kollmar      : KDIIS, OOCD, Brueckner-CCSD(T), CCSD density, CASPT2, CASPT2-K, improved NEVPT2 
  Axel Koslowski         : Symmetry handling                             
  Simone Kossmann        : meta-GGA functionals, TD-DFT gradient, OOMP2, (MP2 Hessian; deprecated post 5.0) 
  Lucas Lang             : DCDCAS                                        
  Marvin Lechner         : AUTO-CI (C++ implementation), FIC-MRCC        
  Spencer Leger          : CASSCF response                               
  Dagmar Lenk            : GEPOL surface, SMD, ORCA-2-JSON               
  Dimitrios Liakos       : Extrapolation schemes; Compound Job, initial MDCI parallelization 
  Dimitrios Manganas     : Further ROCIS development; embedding schemes. LFT, Crystal Embedding 
  Dimitrios Pantazis     : SARC Basis sets                               
  Anastasios Papadopoulos: AUTO-CI, single reference methods and gradients 
  Taras Petrenko         : pre 6.0 DFT Hessian and TD-DFT gradient, (ASA, deprecated), ECA, 1-Electron XAS/XES, NRVS 
  Peter Pinski           : DLPNO-MP2, DLPNO-MP2 Gradient                 
  Christoph Reimann      : Effective Core Potentials                     
  Marius Retegan         : Local ZFS, SOC                                
  Christoph Riplinger    : Optimizer, TS searches, QM/MM, DLPNO-CCSD(T), (RO)-DLPNO pert. Triples 
  Michael Roemelt        : Original ROCIS implementation                 
  Masaaki Saitow         : Open-shell DLPNO-CCSD energy and density      
  Barbara Sandhoefer     : DKH picture change effects                    
  Kantharuban Sivalingam : CASSCF convergence/infrastructure, NEVPT2 and variants, FIC-MRCI 
  Bernardo de Souza      : ESD, SOC TD-DFT                               
  Georgi L. Stoychev     : AutoAux, RI-MP2 NMR, DLPNO-MP2 response, X2C  
  Van Anh Tran           : RI-MP2 g-tensors                              
  Willem Van den Heuvel  : Paramagnetic NMR                              
  Zikuan Wang            : NOTCH, Electric field optimization            
  Frank Wennmohs         : Technical directorship and infrastructure     
  Hang Xu                : AUTO-CI-Response properties                   
                                                                         
[FACCTs GmbH]                                                            
  Markus Bursch, Miquel Garcia-Rates, Christoph Riplinger, Bernardo de Souza, Georgi L. Stoychev 
                                                                 
  APM, Basis sets (HGBS, AHGBS, def-TZVP (Ac-Lr), def2-XVPD (La-Lu)), CI-OPT, improved COSX, DLPNO-Multilevel,           
  DOCKER, DRACO, updates on ESD, GOAT, IRC, LR-CPCM, MBIS, meta-GGA TD-DFT gradient, ML-optimized integration grids, 
  MM, NACMEs, nearIR, NEB, NEB-TS, NL-DFT gradient (VV10), 2- and 3-layer-ONIOM, interface openCOSMO-RS, QMMM,   
  Crystal-QMMM, SF, symmetry and pop. for TD-DFT, r2SCAN hybrids, SOLVATOR                                   
                                                                         
[Other institutions]                                                     
  V. Asgeirsson          : NEB                                           
  Christoph Bannwarth    : sTDA-DFT, sTD-DFT, PBEh-3c, B97-3c, D3        
  Sebastian Ehlert       : rSCAN, r2SCAN, r2SCAN-3c, D4, dhf basis sets  
  Marvin Friede          : D4 for Fr, Ra, Ac-Lr                          
  Lars Goerigk           : TD-DFT with DH, B97 family of functionals     
  Stefan Grimme          : VdW corrections, initial TS optimization, DFT functionals, gCP, sTDA/sTD-DF 
  Waldemar Hujo          : DFT-NL                                        
  H. Jonsson             : NEB                                           
  Holger Kruse           : gCP                                           
  Marcel Mueller         : wB97X-3c, vDZP basis set                      
  Hagen Neugebauer       : wr2SCAN                                       
  Tobias Risthaus        : range-separated hybrid DFT                    
  Lukas Wittmann         : regularized MP2, r2SCAN double-hybrids, wr2SCAN        
                                                                         
We gratefully acknowledge several colleagues who have allowed us to      
interface, adapt or use parts of their codes:                            
  Ed Valeev, F. Pavosevic, A. Kumar             : LibInt (2-el integral package), F12 methods 
  Garnet Chan, S. Sharma, J. Yang, R. Olivares  : DMRG                   
  Ulf Ekstrom                                   : XCFun DFT Library      
  Mihaly Kallay                                 : mrcc  (arbitrary order and MRCC methods)
  Frank Weinhold                                : gennbo (NPA and NBO analysis)           
  Simon Mueller                                 : openCOSMO-RS                            
  Christopher J. Cramer and Donald G. Truhlar   : smd solvation model                     
  S Lehtola, MJT Oliveira, MAL Marques          : LibXC Library                           
  Liviu Ungur et al                             : ANISO software                          


 Your calculation uses the libint2 library for the computation of 2-el integrals
 For citations please refer to: http://libint.valeyev.net

 Your ORCA version has been built with support for libXC version: 6.2.2
 For citations please refer to: https://libxc.gitlab.io

 This ORCA versions uses:
   CBLAS   interface :  Fast vector & matrix operations
   LAPACKE interface :  Fast linear algebra routines
   SCALAPACK package :  Parallel linear algebra routines
   Shared memory     :  Shared parallel matrices
   BLAS/LAPACK       :  OpenBLAS 0.3.27  USE64BITINT DYNAMIC_ARCH NO_AFFINITY SkylakeX SINGLE_THREADED
        Core in use  :  SkylakeX
   Copyright (c) 2011-2014, The OpenBLAS Project


NOTE: MaxCore=5000 MB was set to SCF,MP2,MDCI,CIPSI,MRCI and CIS
      => If you want to overwrite this, your respective input block should be placed after the MaxCore statement
Your calculation utilizes the atom-pairwise dispersion correction
with the zero-damping scheme (D30)


XCFun DFT library Copyright 2009-2010 Ulf Ekstrom and contributors.
See http://admol.org/xcfun for more information.
This is free software; see the source code for copying conditions.
There is ABSOLUTELY NO WARRANTY; not even for MERCHANTABILITY or FITNESS FOR A PARTICULAR PURPOSE.
For details see the documentation.
Scientific users of this library should cite U. Ekstrom, L. Visscher, R. Bast, A. J. Thorvaldsen and K. Ruud;
J.Chem.Theor.Comp. 2010, DOI: 10.1021/ct100117s
XCFun Version 0.99 

Warning: RI is on but no J-basis has been assigned. Assigning Def2/J (nothing to worry about!)
================================================================================

----- Orbital basis set information -----
Your calculation utilizes the basis: def2-TZVPP
   F. Weigend and R. Ahlrichs, Phys. Chem. Chem. Phys. 7, 3297 (2005).

----- AuxJ basis set information -----
Your calculation utilizes the auxiliary basis: def2/J
   F. Weigend, Phys. Chem. Chem. Phys. 8, 1057 (2006).

================================================================================
                                        WARNINGS
                       Please study these warnings very carefully!
================================================================================


================================================================================
                                       INPUT FILE
================================================================================
NAME = honokiol_2_SP.inp
|  1> ! wB97X-D3 def2-TZVPP TightSCF RIJCOSX SP
|  2> 
|  3> %pal
|  4> nprocs 28
|  5> end
|  6> 
|  7> %maxcore 5000
|  8> 
|  9> * xyz 0 1
| 10>   O           0.66682257536022      3.32136578460567     -0.04006185996138
| 11>   O          -4.34542734981792     -0.24145515781635      1.28118425438153
| 12>   C           1.07886970867755      1.00077002099324      0.27016870142815
| 13>   C          -0.36042824522005      0.72571571862680      0.53322188052572
| 14>   C          -2.31672020401728     -0.70944272029050      0.17134057523420
| 15>   C          -0.98470666642384     -0.37765576102888     -0.06593962022539
| 16>   C           3.36611891832958      0.13967302626302      0.00560137987693
| 17>   C           2.00634108613910     -0.04413353773989      0.27712763382446
| 18>   C           1.55303077686770      2.29579045496292     -0.02161838971257
| 19>   C          -1.12433096733100      1.51705775549572      1.39664916407750
| 20>   C          -3.05506217521853      0.09939437802395      1.05012736985386
| 21>   C          -2.98913982202573     -1.87192970565432     -0.52375896938130
| 22>   C           4.31965393335137     -1.03905737195672      0.04044157914734
| 23>   C           3.80224874772150      1.43101737673388     -0.28530680659103
| 24>   C          -2.45478706910594      1.20416624286237      1.65622355005236
| 25>   C           2.90570471085851      2.49747879309090     -0.29578469998319
| 26>   C          -3.80399060534295     -1.42542074475187     -1.71092391154779
| 27>   C           3.88975707430927     -2.16539189820768     -0.85926390386943
| 28>   C          -5.12566319508118     -1.54571820139412     -1.82045115188140
| 29>   C           3.61160582986809     -3.40490751358096     -0.45627481936959
| 30>   H          -0.40919850111866     -1.00043150276166     -0.75819683971732
| 31>   H           1.64947421567528     -1.05102863174057      0.51463287812061
| 32>   H          -0.67349888704084      2.38715651750499      1.87625384312586
| 33>   H          -2.21339549972201     -2.57910054377649     -0.86021213199474
| 34>   H          -3.63668257374476     -2.40824608478311      0.18622906250593
| 35>   H           5.32197408912867     -0.69343347921597     -0.26300915477992
| 36>   H           4.41763822118247     -1.41354052811986      1.07351539845508
| 37>   H           4.85776776349832      1.61661304738454     -0.50444081828580
| 38>   H          -3.03930156989854      1.82733934312377      2.34102987293219
| 39>   H           3.25937116575767      3.50695159607418     -0.53035977107256
| 40>   H          -3.23854916252000     -0.94875229642524     -2.52211364300274
| 41>   H           3.79033219437747     -1.91267059837625     -1.92266080640305
| 42>   H           1.12234568285361      4.12826699649769     -0.29743856468011
| 43>   H          -4.74281341635792      0.39526089332308      1.88227388052648
| 44>   H          -5.65929410962331     -1.19152251141149     -2.70648461078273
| 45>   H          -5.72319048135719     -1.99539377996614     -1.02111592548902
| 46>   H           3.29853178705123     -4.17855864191031     -1.16229261077110
| 47>   H           3.68939201996006     -3.69382673465834      0.59738798543398
| 48> *
| 49> 
| 50>                          ****END OF INPUT****
================================================================================

                       ****************************
                       * Single Point Calculation *
                       ****************************

---------------------------------
CARTESIAN COORDINATES (ANGSTROEM)
---------------------------------
  O      0.666823    3.321366   -0.040062
  O     -4.345427   -0.241455    1.281184
  C      1.078870    1.000770    0.270169
  C     -0.360428    0.725716    0.533222
  C     -2.316720   -0.709443    0.171341
  C     -0.984707   -0.377656   -0.065940
  C      3.366119    0.139673    0.005601
  C      2.006341   -0.044134    0.277128
  C      1.553031    2.295790   -0.021618
  C     -1.124331    1.517058    1.396649
  C     -3.055062    0.099394    1.050127
  C     -2.989140   -1.871930   -0.523759
  C      4.319654   -1.039057    0.040442
  C      3.802249    1.431017   -0.285307
  C     -2.454787    1.204166    1.656224
  C      2.905705    2.497479   -0.295785
  C     -3.803991   -1.425421   -1.710924
  C      3.889757   -2.165392   -0.859264
  C     -5.125663   -1.545718   -1.820451
  C      3.611606   -3.404908   -0.456275
  H     -0.409199   -1.000432   -0.758197
  H      1.649474   -1.051029    0.514633
  H     -0.673499    2.387157    1.876254
  H     -2.213395   -2.579101   -0.860212
  H     -3.636683   -2.408246    0.186229
  H      5.321974   -0.693433   -0.263009
  H      4.417638   -1.413541    1.073515
  H      4.857768    1.616613   -0.504441
  H     -3.039302    1.827339    2.341030
  H      3.259371    3.506952   -0.530360
  H     -3.238549   -0.948752   -2.522114
  H      3.790332   -1.912671   -1.922661
  H      1.122346    4.128267   -0.297439
  H     -4.742813    0.395261    1.882274
  H     -5.659294   -1.191523   -2.706485
  H     -5.723190   -1.995394   -1.021116
  H      3.298532   -4.178559   -1.162293
  H      3.689392   -3.693827    0.597388

----------------------------
CARTESIAN COORDINATES (A.U.)
----------------------------
  NO LB      ZA    FRAG     MASS         X           Y           Z
   0 O     8.0000    0    15.999    1.260112    6.276472   -0.075706
   1 O     8.0000    0    15.999   -8.211668   -0.456284    2.421087
   2 C     6.0000    0    12.011    2.038768    1.891181    0.510545
   3 C     6.0000    0    12.011   -0.681111    1.371404    1.007643
   4 C     6.0000    0    12.011   -4.377967   -1.340652    0.323787
   5 C     6.0000    0    12.011   -1.860826   -0.713666   -0.124608
   6 C     6.0000    0    12.011    6.361043    0.263944    0.010585
   7 C     6.0000    0    12.011    3.791435   -0.083400    0.523695
   8 C     6.0000    0    12.011    2.934803    4.338415   -0.040853
   9 C     6.0000    0    12.011   -2.124678    2.866824    2.639284
  10 C     6.0000    0    12.011   -5.773231    0.187828    1.984453
  11 C     6.0000    0    12.011   -5.648656   -3.537434   -0.989761
  12 C     6.0000    0    12.011    8.162963   -1.963534    0.076424
  13 C     6.0000    0    12.011    7.185209    2.704231   -0.539152
  14 C     6.0000    0    12.011   -4.638875    2.275544    3.129809
  15 C     6.0000    0    12.011    5.490986    4.719551   -0.558952
  16 C     6.0000    0    12.011   -7.188500   -2.693655   -3.233178
  17 C     6.0000    0    12.011    7.350576   -4.091998   -1.623773
  18 C     6.0000    0    12.011   -9.686100   -2.920984   -3.440154
  19 C     6.0000    0    12.011    6.824946   -6.434343   -0.862234
  20 H     1.0000    0     1.008   -0.773273   -1.890542   -1.432784
  21 H     1.0000    0     1.008    3.117055   -1.986156    0.972515
  22 H     1.0000    0     1.008   -1.272728    4.511072    3.545606
  23 H     1.0000    0     1.008   -4.182711   -4.873794   -1.625565
  24 H     1.0000    0     1.008   -6.872334   -4.550926    0.351922
  25 H     1.0000    0     1.008   10.057074   -1.310399   -0.497015
  26 H     1.0000    0     1.008    8.348126   -2.671204    2.028650
  27 H     1.0000    0     1.008    9.179851    3.054956   -0.953255
  28 H     1.0000    0     1.008   -5.743448    3.453171    4.423905
  29 H     1.0000    0     1.008    6.159319    6.627178   -1.002235
  30 H     1.0000    0     1.008   -6.119971   -1.792882   -4.766104
  31 H     1.0000    0     1.008    7.162690   -3.614424   -3.633302
  32 H     1.0000    0     1.008    2.120926    7.801294   -0.562077
  33 H     1.0000    0     1.008   -8.962618    0.746935    3.556982
  34 H     1.0000    0     1.008  -10.694516   -2.251651   -5.114515
  35 H     1.0000    0     1.008  -10.815263   -3.770748   -1.929629
  36 H     1.0000    0     1.008    6.233322   -7.896331   -2.196415
  37 H     1.0000    0     1.008    6.971941   -6.980321    1.128900

--------------------------------
INTERNAL COORDINATES (ANGSTROEM)
--------------------------------
 O      0   0   0     0.000000000000     0.00000000     0.00000000
 O      1   0   0     6.289835743076     0.00000000     0.00000000
 C      1   2   0     2.377223283453    63.75332284     0.00000000
 C      3   1   2     1.488768096238    92.05385288   359.86715058
 C      2   1   3     2.359325758389    47.80402366   330.49946658
 C      5   2   1     1.393070185535   148.76656522    21.12906138
 C      3   1   2     2.458249956579   119.28626283   178.42828501
 C      3   1   2     1.397166786681   147.75447058   178.37262551
 C      1   2   3     1.355547820914    95.13818205     0.54999753
 C      4   3   1     1.398311933063   122.18787532   313.82424979
 C      2   1   3     1.354477011170    20.35778365     1.98585558
 C      5   2   1     1.512179721709    89.21850254   202.56332331
 C      7   3   1     1.516525046297   148.73952614   179.31691745
 C      7   3   1     1.393702634184    89.37335342     0.00000000
 C     10   4   3     1.391184171590   120.68953552   182.26310878
 C     14   7   3     1.393284231183   120.62532394     0.28983980
 C     12   5   2     1.507551873452   112.00195002    80.81566177
 C     13   7   3     1.504297420928   112.86365671    55.41963381
 C     17  12   5     1.331647899752   125.06301878   243.94223789
 C     18  13   7     1.332729258989   125.11157630   240.15297535
 H      6   5   2     1.094659458810   118.35377545   180.02723493
 H      8   3   1     1.094349320201   118.21073878   179.59179258
 H     10   4   3     1.091027987008   119.80326457     2.01019958
 H     12   5   2     1.102302398850   108.69624294   201.64820914
 H     12   5   2     1.100468027363   109.86124374   318.85200533
 H     13   7   3     1.102807289526   108.75691465   176.83381099
 H     13   7   3     1.103213520154   109.94977000   293.03879661
 H     14   7   3     1.093885670768   120.06439702   180.04303691
 H     15  10   4     1.094971056413   119.94747438   179.48030360
 H     16  14   7     1.095052859574   119.96029439   180.28373511
 H     17  12   5     1.097709258096   115.60244418    62.57772561
 H     18  13   7     1.097527372987   115.65622984    59.10969933
 H      1   2   3     0.961682710329   155.36104822   171.61199047
 H      2   1   3     0.961577742212    94.90822066   138.98640820
 H     19  17  12     1.093284880555   121.45528755   179.37531951
 H     19  17  12     1.094615817518   121.25437491   359.97026418
 H     20  18  13     1.093166294041   121.51345693   179.67825954
 H     20  18  13     1.095322013795   121.42507122   359.51199767

---------------------------
INTERNAL COORDINATES (A.U.)
---------------------------
 O      0   0   0     0.000000000000     0.00000000     0.00000000
 O      1   0   0    11.886066981763     0.00000000     0.00000000
 C      1   2   0     4.492300964907    63.75332284     0.00000000
 C      3   1   2     2.813363978810    92.05385288   359.86715058
 C      2   1   3     4.458479544061    47.80402366   330.49946658
 C      5   2   1     2.632521135991   148.76656522    21.12906138
 C      3   1   2     4.645419186658   119.28626283   178.42828501
 C      3   1   2     2.640262590237   147.75447058   178.37262551
 C      1   2   3     2.561614142962    95.13818205     0.54999753
 C      4   3   1     2.642426603283   122.18787532   313.82424979
 C      2   1   3     2.559590605804    20.35778365     1.98585558
 C      5   2   1     2.857605539299    89.21850254   202.56332331
 C      7   3   1     2.865817012733   148.73952614   179.31691745
 C      7   3   1     2.633716290733    89.37335342     0.00000000
 C     10   4   3     2.628957086151   120.68953552   182.26310878
 C     14   7   3     2.632925623647   120.62532394     0.28983980
 C     12   5   2     2.848860173504   112.00195002    80.81566177
 C     13   7   3     2.842710149517   112.86365671    55.41963381
 C     17  12   5     2.516449837344   125.06301878   243.94223789
 C     18  13   7     2.518493310152   125.11157630   240.15297535
 H      6   5   2     2.068606587058   118.35377545   180.02723493
 H      8   3   1     2.068020510024   118.21073878   179.59179258
 H     10   4   3     2.061744099888   119.80326457     2.01019958
 H     12   5   2     2.083049650590   108.69624294   201.64820914
 H     12   5   2     2.079583190853   109.86124374   318.85200533
 H     13   7   3     2.084003755696   108.75691465   176.83381099
 H     13   7   3     2.084771420330   109.94977000   293.03879661
 H     14   7   3     2.067144339573   120.06439702   180.04303691
 H     15  10   4     2.069195421191   119.94747438   179.48030360
 H     16  14   7     2.069350006762   119.96029439   180.28373511
 H     17  12   5     2.074369872471   115.60244418    62.57772561
 H     18  13   7     2.074026159428   115.65622984    59.10969933
 H      1   2   3     1.817316950248   155.36104822   171.61199047
 H      2   1   3     1.817118589255    94.90822066   138.98640820
 H     19  17  12     2.066009010606   121.45528755   179.37531951
 H     19  17  12     2.068524116967   121.25437491   359.97026418
 H     20  18  13     2.065784914570   121.51345693   179.67825954
 H     20  18  13     2.069858634527   121.42507122   359.51199767

---------------------
BASIS SET INFORMATION
---------------------
There are 3 groups of distinct atoms

 Group   1 Type O   : 11s6p2d1f contracted to 5s3p2d1f pattern {62111/411/11/1}
 Group   2 Type C   : 11s6p2d1f contracted to 5s3p2d1f pattern {62111/411/11/1}
 Group   3 Type H   : 5s2p1d contracted to 3s2p1d pattern {311/11/1}

Atom   0O    basis set group =>   1
Atom   1O    basis set group =>   1
Atom   2C    basis set group =>   2
Atom   3C    basis set group =>   2
Atom   4C    basis set group =>   2
Atom   5C    basis set group =>   2
Atom   6C    basis set group =>   2
Atom   7C    basis set group =>   2
Atom   8C    basis set group =>   2
Atom   9C    basis set group =>   2
Atom  10C    basis set group =>   2
Atom  11C    basis set group =>   2
Atom  12C    basis set group =>   2
Atom  13C    basis set group =>   2
Atom  14C    basis set group =>   2
Atom  15C    basis set group =>   2
Atom  16C    basis set group =>   2
Atom  17C    basis set group =>   2
Atom  18C    basis set group =>   2
Atom  19C    basis set group =>   2
Atom  20H    basis set group =>   3
Atom  21H    basis set group =>   3
Atom  22H    basis set group =>   3
Atom  23H    basis set group =>   3
Atom  24H    basis set group =>   3
Atom  25H    basis set group =>   3
Atom  26H    basis set group =>   3
Atom  27H    basis set group =>   3
Atom  28H    basis set group =>   3
Atom  29H    basis set group =>   3
Atom  30H    basis set group =>   3
Atom  31H    basis set group =>   3
Atom  32H    basis set group =>   3
Atom  33H    basis set group =>   3
Atom  34H    basis set group =>   3
Atom  35H    basis set group =>   3
Atom  36H    basis set group =>   3
Atom  37H    basis set group =>   3
---------------------------------
AUXILIARY/J BASIS SET INFORMATION
---------------------------------
There are 3 groups of distinct atoms

 Group   1 Type O   : 12s5p4d2f1g contracted to 6s4p3d1f1g pattern {711111/2111/211/2/1}
 Group   2 Type C   : 12s5p4d2f1g contracted to 6s4p3d1f1g pattern {711111/2111/211/2/1}
 Group   3 Type H   : 5s2p1d contracted to 3s1p1d pattern {311/2/1}

Atom   0O    basis set group =>   1
Atom   1O    basis set group =>   1
Atom   2C    basis set group =>   2
Atom   3C    basis set group =>   2
Atom   4C    basis set group =>   2
Atom   5C    basis set group =>   2
Atom   6C    basis set group =>   2
Atom   7C    basis set group =>   2
Atom   8C    basis set group =>   2
Atom   9C    basis set group =>   2
Atom  10C    basis set group =>   2
Atom  11C    basis set group =>   2
Atom  12C    basis set group =>   2
Atom  13C    basis set group =>   2
Atom  14C    basis set group =>   2
Atom  15C    basis set group =>   2
Atom  16C    basis set group =>   2
Atom  17C    basis set group =>   2
Atom  18C    basis set group =>   2
Atom  19C    basis set group =>   2
Atom  20H    basis set group =>   3
Atom  21H    basis set group =>   3
Atom  22H    basis set group =>   3
Atom  23H    basis set group =>   3
Atom  24H    basis set group =>   3
Atom  25H    basis set group =>   3
Atom  26H    basis set group =>   3
Atom  27H    basis set group =>   3
Atom  28H    basis set group =>   3
Atom  29H    basis set group =>   3
Atom  30H    basis set group =>   3
Atom  31H    basis set group =>   3
Atom  32H    basis set group =>   3
Atom  33H    basis set group =>   3
Atom  34H    basis set group =>   3
Atom  35H    basis set group =>   3
Atom  36H    basis set group =>   3
Atom  37H    basis set group =>   3

Checking for AutoStart:
The File: honokiol_2_SP.gbw exists
Trying to determine its content:
     ... Fine, the file contains calculation information
     ... Fine, the calculation information was read
     ... Fine, the file contains a basis set
     ... Fine, the basis set was read
     ... Fine, the file contains a geometry
     ... Fine, the geometry was read
     ... The file does not contain orbitals - skipping AutoStart
--------------------------------------------------------------------------
WARNING: There was an error initializing an OpenFabrics device.

  Local host:   ga01
  Local device: mlx5_0
--------------------------------------------------------------------------


           ************************************************************
           *        Program running with 28 parallel MPI-processes    *
           *              working on a common directory               *
           ************************************************************
------------------------------------------------------------------------------
                             ORCA STARTUP CALCULATIONS
                           -- RI-GTO INTEGRALS CHOSEN --
------------------------------------------------------------------------------
------------------------------------------------------------------------------
                   ___                                                        
                  /   \      - P O W E R E D   B Y -                         
                 /     \                                                     
                 |  |  |   _    _      __       _____    __    __             
                 |  |  |  | |  | |    /  \     |  _  \  |  |  /  |          
                  \  \/   | |  | |   /    \    | | | |  |  | /  /          
                 / \  \   | |__| |  /  /\  \   | |_| |  |  |/  /          
                |  |  |   |  __  | /  /__\  \  |    /   |      \           
                |  |  |   | |  | | |   __   |  |    \   |  |\   \          
                \     /   | |  | | |  |  |  |  | |\  \  |  | \   \       
                 \___/    |_|  |_| |__|  |__|  |_| \__\ |__|  \__/        
                                                                              
                      - O R C A' S   B I G   F R I E N D -                    
                                      &                                       
                       - I N T E G R A L  F E E D E R -                       
                                                                              
 v1 FN, 2020, v2 2021, v3 2022-2024                                           
------------------------------------------------------------------------------


----------------------
SHARK INTEGRAL PACKAGE
----------------------

Number of atoms                             ...     38
Number of basis functions                   ...    872
Number of shells                            ...    328
Maximum angular momentum                    ...      3
Integral batch strategy                     ... SHARK/LIBINT Hybrid
RI-J (if used) integral strategy            ... SPLIT-RIJ (Revised 2003 algorithm where possible)
Printlevel                                  ...      1
Contraction scheme used                     ... SEGMENTED contraction
Prescreening option                         ... SCHWARTZ
   Thresh                                   ... 2.500e-11
   Tcut                                     ... 2.500e-12
   Tpresel                                  ... 2.500e-12 
Coulomb Range Separation                    ... NOT USED
Exchange Range Separation                   ... Long Range
   Mu parameter                             ... 2.500e-01
   Scaling (regular/separated)              ... 1.957e-01 8.043e-01
Multipole approximations                    ... NOT USED
Finite Nucleus Model                        ... NOT USED
CABS basis                                  ... NOT available
Auxiliary Coulomb fitting basis             ... AVAILABLE
   # of basis functions in Aux-J            ...   1178
   # of shells in Aux-J                     ...    390
   Maximum angular momentum in Aux-J        ...      4
Auxiliary J/K fitting basis                 ... NOT available
Auxiliary Correlation fitting basis         ... NOT available
Auxiliary 'external' fitting basis          ... NOT available

Checking pre-screening integrals            ... done (  0.0 sec) Dimension = 328
Check shell pair data                       ... done (  0.0 sec)
Shell pair information
Shell pair cut-off parameter TPreSel        ...   2.5e-12
Total number of shell pairs                 ...     53956
Shell pairs after pre-screening             ...     35698
Total number of primitive shell pairs       ...    148734
Primitive shell pairs kept                  ...     68526
          la=0 lb=0:   7998 shell pairs
          la=1 lb=0:  10241 shell pairs
          la=1 lb=1:   3345 shell pairs
          la=2 lb=0:   5536 shell pairs
          la=2 lb=1:   3594 shell pairs
          la=2 lb=2:    965 shell pairs
          la=3 lb=0:   1959 shell pairs
          la=3 lb=1:   1269 shell pairs
          la=3 lb=2:    658 shell pairs
          la=3 lb=3:    133 shell pairs

Calculating one electron integrals          ... done (  0.1 sec)
Calculating RI/J V-Matrix + Cholesky decomp.... done (  0.1 sec)
Calculating Nuclear repulsion               ... done (  0.0 sec) ENN=   1416.752653667550 Eh

Diagonalization of the overlap matrix:
Smallest eigenvalue                        ... 6.643e-06
Time for diagonalization                   ...    0.103 sec
Threshold for overlap eigenvalues          ... 1.000e-07
Number of eigenvalues below threshold      ... 0
Time for construction of square roots      ...    0.056 sec
Total time needed                          ...    0.167 sec

-------------------
DFT GRID GENERATION
-------------------

General Integration Accuracy     IntAcc      ... 4.388
Radial Grid Type                 RadialGrid  ... OptM3 with GC (2021)
Angular Grid (max. ang.)         AngularGrid ... 4 (Lebedev-302)
Angular grid pruning method      GridPruning ... 4 (adaptive)
Weight generation scheme         WeightScheme... mBecke (2022)
Basis function cutoff            BFCut       ... 1.0000e-11
Integration weight cutoff        WCut        ... 1.0000e-14
Partially contracted basis set               ... off
Rotationally invariant grid construction     ... off
Angular grids for H and He will be reduced by one unit

Total number of grid points                  ...   177225
Total number of batches                      ...     2789
Average number of points per batch           ...       63
Average number of grid points per atom       ...     4664

--------------------
COSX GRID GENERATION
--------------------

GRIDX 1
-------
General Integration Accuracy     IntAcc      ... 3.816
Radial Grid Type                 RadialGrid  ... OptM3 with GC (2021)
Angular Grid (max. ang.)         AngularGrid ... 1 (Lebedev-50)
Angular grid pruning method      GridPruning ... 4 (adaptive)
Weight generation scheme         WeightScheme... mBecke (2022)
Basis function cutoff            BFCut       ... 1.0000e-11
Integration weight cutoff        WCut        ... 1.0000e-14
Partially contracted basis set               ... on
Rotationally invariant grid construction     ... off
Angular grids for H and He will be reduced by one unit

Total number of grid points                  ...    22521
Total number of batches                      ...      198
Average number of points per batch           ...      113
Average number of grid points per atom       ...      593
UseSFitting                                  ... on

GRIDX 2
-------
General Integration Accuracy     IntAcc      ... 4.020
Radial Grid Type                 RadialGrid  ... OptM3 with GC (2021)
Angular Grid (max. ang.)         AngularGrid ... 2 (Lebedev-110)
Angular grid pruning method      GridPruning ... 4 (adaptive)
Weight generation scheme         WeightScheme... mBecke (2022)
Basis function cutoff            BFCut       ... 1.0000e-11
Integration weight cutoff        WCut        ... 1.0000e-14
Partially contracted basis set               ... on
Rotationally invariant grid construction     ... off
Angular grids for H and He will be reduced by one unit

Total number of grid points                  ...    48559
Total number of batches                      ...      398
Average number of points per batch           ...      122
Average number of grid points per atom       ...     1278
UseSFitting                                  ... on

GRIDX 3
-------
General Integration Accuracy     IntAcc      ... 4.338
Radial Grid Type                 RadialGrid  ... OptM3 with GC (2021)
Angular Grid (max. ang.)         AngularGrid ... 3 (Lebedev-194)
Angular grid pruning method      GridPruning ... 4 (adaptive)
Weight generation scheme         WeightScheme... mBecke (2022)
Basis function cutoff            BFCut       ... 1.0000e-11
Integration weight cutoff        WCut        ... 1.0000e-14
Partially contracted basis set               ... on
Rotationally invariant grid construction     ... off
Angular grids for H and He will be reduced by one unit

Total number of grid points                  ...   106234
Total number of batches                      ...      851
Average number of points per batch           ...      124
Average number of grid points per atom       ...     2796
UseSFitting                                  ... on
Initializing property integral containers    ... done (  0.0 sec)

SHARK setup successfully completed in   2.5 seconds

Maximum memory used throughout the entire STARTUP-calculation: 77.1 MB
[ga01:3773890] 27 more processes have sent help message help-mpi-btl-openib.txt / error in device init
[ga01:3773890] Set MCA parameter "orte_base_help_aggregate" to 0 to see all help / error messages
--------------------------------------------------------------------------
WARNING: There was an error initializing an OpenFabrics device.

  Local host:   ga01
  Local device: mlx5_0
--------------------------------------------------------------------------


           ************************************************************
           *        Program running with 28 parallel MPI-processes    *
           *              working on a common directory               *
           ************************************************************
-------------------------------------------------------------------------------
                                 ORCA GUESS
                   Start orbitals & Density for SCF / CASSCF
-------------------------------------------------------------------------------

------------
SCF SETTINGS
------------
Hamiltonian:
 Density Functional     Method          .... DFT(GTOs)
 Exchange Functional    Exchange        .... WB97X-D3
 Correlation Functional Correlation     .... WB97X-D3
 Gradients option       PostSCFGGA      .... off
 Hybrid DFT is turned on
   Fraction HF Exchange ScalHFX         ....  0.195728
   Scaling of DF-GGA-X  ScalDFX         ....  0.000000
   Scaling of DF-GGA-C  ScalDFC         ....  1.000000
   Scaling of DF-LDA-C  ScalLDAC        ....  1.000000
   Perturbative correction              ....  0.000000
 Long-range corrected/Screened/Range-Separated Hybrid DFT is turned on
   Amount of maximum screened exact exchange              ....  0.804272
   Range separation parameter mu (erf(mu*r12)/r12)        ....  0.250000
 RI-approximation to the Coulomb term is turned on
   Number of AuxJ basis functions       .... 1178
   RIJ-COSX (HFX calculated with COS-X)).... on


General Settings:
 Integral files         IntName         .... honokiol_2_SP
 Hartree-Fock type      HFTyp           .... RHF
 Total Charge           Charge          ....    0
 Multiplicity           Mult            ....    1
 Number of Electrons    NEL             ....  142
 Basis Dimension        Dim             ....  872
 Nuclear Repulsion      ENuc            ....   1416.7526536675 Eh

Convergence Acceleration:
 AO-DIIS                CNVDIIS         .... on
   Start iteration      DIISMaxIt       ....    12
   Startup error        DIISStart       ....  0.200000
   # of expansion vecs  DIISMaxEq       ....     5
   Bias factor          DIISBfac        ....   1.050
   Max. coefficient     DIISMaxC        ....  10.000
 MO-DIIS                CNVKDIIS        .... off
 Trust-Rad. Augm. Hess. CNVTRAH         .... auto
   Auto Start mean grad. ratio tolernc. ....  1.125000
   Auto Start start iteration           ....    50
   Auto Start num. interpolation iter.  ....    10
   Max. Number of Micro iterations      ....    24
   Max. Number of Macro iterations      .... Maxiter - #DIIS iter
   Number of Davidson start vectors     ....     2
   Converg. threshold    (grad. norm)   ....   1.000e-05
   Grad. Scal. Fac. for Micro threshold ....   0.100
   Minimum threshold for Micro iter.    ....   1.000e-02
   NR start threshold (gradient norm)   ....   1.000e-04
   Initial trust radius                 ....   0.400
   Minimum AH scaling param. (alpha)    ....   1.000
   Maximum AH scaling param. (alpha)    .... 1000.000
   Quad. conv. algorithm                .... NR
   White noise on init. David. guess    .... on
   Maximum white noise                  ....   0.010
   Pseudo random numbers                .... off
   Inactive MOs                         .... canonical
   Orbital update algorithm             .... Taylor
   Preconditioner                       .... Diag
   Full preconditioner red. dimension   ....   250
 SOSCF                  CNVSOSCF        .... on
   Start iteration      SOSCFMaxIt      ....   150
   Startup grad/error   SOSCFStart      ....  0.003300
   Hessian update       SOSCFHessUp     .... L-BFGS
 Level Shifting         CNVShift        .... on
   Level shift para.    LevelShift      ....    0.2500
   Turn off err/grad.   ShiftErr        ....    0.0010
 Zerner damping         CNVZerner       .... off
 Static damping         CNVDamp         .... on
   Fraction old density DampFac         ....    0.7000
   Max. Damping (<1)    DampMax         ....    0.9800
   Min. Damping (>=0)   DampMin         ....    0.0000
   Turn off err/grad.   DampErr         ....    0.1000

SCF Procedure:
 Maximum # iterations   MaxIter         ....   125
 SCF integral mode      SCFMode         .... Direct
   Integral package                     .... SHARK and LIBINT hybrid scheme
 Reset frequency        DirectResetFreq ....    20
 Integral Threshold     Thresh          ....  2.500e-11 Eh
 Primitive CutOff       TCut            ....  2.500e-12 Eh

Convergence Tolerance:
 Convergence Check Mode ConvCheckMode   .... Total+1el-Energy
 Convergence forced     ConvForced      .... 0
 Energy Change          TolE            ....  1.000e-08 Eh
 1-El. energy change                    ....  1.000e-05 Eh
 Orbital Gradient       TolG            ....  1.000e-05
 Orbital Rotation angle TolX            ....  1.000e-05
 DIIS Error             TolErr          ....  5.000e-07

------------------------------
INITIAL GUESS: MODEL POTENTIAL
------------------------------
Loading Hartree-Fock densities                     ... done
Calculating cut-offs                               ... done
Initializing the effective Hamiltonian             ... done
Setting up the integral package (SHARK)            ... done
Starting the Coulomb interaction                   ... done (   0.2 sec)
Making the grid                                    ... done (   0.2 sec)
Mapping shells                                     ... done
Starting the XC term evaluation                    ... done (   0.1 sec)
  promolecular density results
     # of electrons  =    141.991226383
     EX              =   -113.664308910
     EC              =     -4.717599956
     EX+EC           =   -118.381908866
Transforming the Hamiltonian                       ... done (   0.0 sec)
Diagonalizing the Hamiltonian                      ... done (   0.1 sec)
Back transforming the eigenvectors                 ... done (   0.0 sec)
Now organizing SCF variables                       ... done
                      ------------------
                      INITIAL GUESS DONE (   0.8 sec)
                      ------------------
             **** ENERGY FILE WAS UPDATED (honokiol_2_SP.en.tmp) ****
Finished Guess after   1.6 sec
Maximum memory used throughout the entire GUESS-calculation: 66.2 MB
[ga01:3774015] 27 more processes have sent help message help-mpi-btl-openib.txt / error in device init
[ga01:3774015] Set MCA parameter "orte_base_help_aggregate" to 0 to see all help / error messages
--------------------------------------------------------------------------
WARNING: There was an error initializing an OpenFabrics device.

  Local host:   ga01
  Local device: mlx5_0
--------------------------------------------------------------------------


           ************************************************************
           *        Program running with 28 parallel MPI-processes    *
           *              working on a common directory               *
           ************************************************************

-------------------------------------------------------------------------------------------
                                      ORCA LEAN-SCF
                              memory conserving SCF solver
-------------------------------------------------------------------------------------------

----------------------------------------D-I-I-S--------------------------------------------
Iteration    Energy (Eh)           Delta-E    RMSDP     MaxDP     DIISErr   Damp  Time(sec)
-------------------------------------------------------------------------------------------
               ***  Starting incremental Fock matrix formation  ***
[ga01:3774142] 27 more processes have sent help message help-mpi-btl-openib.txt / error in device init
[ga01:3774142] Set MCA parameter "orte_base_help_aggregate" to 0 to see all help / error messages
    1    -846.7446743815251011     0.00e+00  6.92e-04  3.50e-02  2.02e-01  0.700   5.4
    2    -846.9353759344869559    -1.91e-01  5.92e-04  3.76e-02  1.06e-01  0.700   3.1
                               ***Turning on AO-DIIS***
    3    -847.0370431806325087    -1.02e-01  3.41e-04  1.76e-02  5.52e-02  0.700   2.9
    4    -847.0977624695331087    -6.07e-02  7.95e-04  4.20e-02  3.49e-02  0.000   3.0
    5    -847.2272378328432296    -1.29e-01  1.03e-04  6.82e-03  4.56e-03  0.000   2.9
                              *** Initializing SOSCF ***
---------------------------------------S-O-S-C-F--------------------------------------
Iteration    Energy (Eh)           Delta-E    RMSDP     MaxDP     MaxGrad    Time(sec)
--------------------------------------------------------------------------------------
    6    -847.2274734124109727    -2.36e-04  4.00e-05  2.27e-03  2.80e-03     2.8
               *** Restarting incremental Fock matrix formation ***
    7    -847.2275325130729016    -5.91e-05  1.02e-04  6.19e-03  5.12e-04     5.2
    8    -847.2275463625662724    -1.38e-05  4.90e-05  2.94e-03  2.15e-04     4.2
    9    -847.2275494934558537    -3.13e-06  3.72e-05  2.33e-03  7.13e-05     3.9
   10    -847.2275503294429200    -8.36e-07  3.59e-06  2.38e-04  1.62e-05     3.8
   11    -847.2275503374087293    -7.97e-09  9.12e-07  7.90e-05  8.74e-06     3.1
                 **** Energy Check signals convergence ****

               *****************************************************
               *                     SUCCESS                       *
               *           SCF CONVERGED AFTER  11 CYCLES          *
               *****************************************************

Recomputing exchange energy using gridx3       ... done (    8.513 sec)
Old exchange energy                            :    -37.928065864 Eh
New exchange energy                            :    -37.928049953 Eh
Exchange energy change after final integration :      0.000015911 Eh
Total energy after final integration           :   -847.227534427 Eh
             **** ENERGY FILE WAS UPDATED (honokiol_2_SP.en.tmp) ****

----------------
TOTAL SCF ENERGY
----------------

Total Energy       :       -847.22753442676162 Eh          -23054.23327 eV

Components:
Nuclear Repulsion  :       1416.75265366754979 Eh           38551.79964 eV
Electronic Energy  :      -2263.98020400495852 Eh          -61606.03334 eV
One Electron Energy:      -3962.26767351294302 Eh         -107818.78480 eV
Two Electron Energy:       1698.28746950798450 Eh           46212.75146 eV

Virial components:
Potential Energy   :      -1690.13811987164490 Eh          -45990.99638 eV
Kinetic Energy     :        842.91058544488328 Eh           22936.76311 eV
Virial Ratio       :          2.00512147914194

DFT components:
N(Alpha)           :       70.999960490647 electrons
N(Beta)            :       70.999960490647 electrons
N(Total)           :      141.999920981293 electrons
E(XC)              :      -83.527262786982 Eh       

---------------
SCF CONVERGENCE
---------------

  Last Energy change         ...    7.9658e-09  Tolerance :   1.0000e-08
  Last MAX-Density change    ...    7.8960e-05  Tolerance :   1.0000e-07
  Last RMS-Density change    ...    9.1218e-07  Tolerance :   5.0000e-09
  Last DIIS Error            ...    2.8024e-03  Tolerance :   5.0000e-07
  Last Orbital Gradient      ...    8.7367e-06  Tolerance :   1.0000e-05
  Last Orbital Rotation      ...    3.2561e-05  Tolerance :   1.0000e-05


----------------
ORBITAL ENERGIES
----------------

  NO   OCC          E(Eh)            E(eV) 
   0   2.0000     -19.264486      -524.2133 
   1   2.0000     -19.262430      -524.1574 
   2   2.0000     -10.343431      -281.4591 
   3   2.0000     -10.338186      -281.3163 
   4   2.0000     -10.288754      -279.9712 
   5   2.0000     -10.285085      -279.8714 
   6   2.0000     -10.284359      -279.8516 
   7   2.0000     -10.284100      -279.8446 
   8   2.0000     -10.283291      -279.8226 
   9   2.0000     -10.282437      -279.7993 
  10   2.0000     -10.282108      -279.7904 
  11   2.0000     -10.282047      -279.7887 
  12   2.0000     -10.278522      -279.6928 
  13   2.0000     -10.278444      -279.6907 
  14   2.0000     -10.278363      -279.6885 
  15   2.0000     -10.277826      -279.6739 
  16   2.0000     -10.277427      -279.6630 
  17   2.0000     -10.275681      -279.6155 
  18   2.0000     -10.271124      -279.4915 
  19   2.0000     -10.261809      -279.2380 
  20   2.0000      -1.186157       -32.2770 
  21   2.0000      -1.183483       -32.2042 
  22   2.0000      -0.985567       -26.8187 
  23   2.0000      -0.968549       -26.3556 
  24   2.0000      -0.921158       -25.0660 
  25   2.0000      -0.912397       -24.8276 
  26   2.0000      -0.886585       -24.1252 
  27   2.0000      -0.861605       -23.4455 
  28   2.0000      -0.858176       -23.3522 
  29   2.0000      -0.832522       -22.6541 
  30   2.0000      -0.793061       -21.5803 
  31   2.0000      -0.785715       -21.3804 
  32   2.0000      -0.746889       -20.3239 
  33   2.0000      -0.725996       -19.7553 
  34   2.0000      -0.714964       -19.4552 
  35   2.0000      -0.678302       -18.4575 
  36   2.0000      -0.661830       -18.0093 
  37   2.0000      -0.655823       -17.8459 
  38   2.0000      -0.646469       -17.5913 
  39   2.0000      -0.643106       -17.4998 
  40   2.0000      -0.599709       -16.3189 
  41   2.0000      -0.598805       -16.2943 
  42   2.0000      -0.573529       -15.6065 
  43   2.0000      -0.562208       -15.2985 
  44   2.0000      -0.552146       -15.0247 
  45   2.0000      -0.546639       -14.8748 
  46   2.0000      -0.535107       -14.5610 
  47   2.0000      -0.533154       -14.5078 
  48   2.0000      -0.529944       -14.4205 
  49   2.0000      -0.527779       -14.3616 
  50   2.0000      -0.517502       -14.0819 
  51   2.0000      -0.505622       -13.7587 
  52   2.0000      -0.503454       -13.6997 
  53   2.0000      -0.496529       -13.5112 
  54   2.0000      -0.492074       -13.3900 
  55   2.0000      -0.483449       -13.1553 
  56   2.0000      -0.468157       -12.7392 
  57   2.0000      -0.454835       -12.3767 
  58   2.0000      -0.452122       -12.3029 
  59   2.0000      -0.445761       -12.1298 
  60   2.0000      -0.436789       -11.8856 
  61   2.0000      -0.432293       -11.7633 
  62   2.0000      -0.429650       -11.6914 
  63   2.0000      -0.424663       -11.5557 
  64   2.0000      -0.417927       -11.3724 
  65   2.0000      -0.356588        -9.7033 
  66   2.0000      -0.348726        -9.4893 
  67   2.0000      -0.345404        -9.3989 
  68   2.0000      -0.330576        -8.9954 
  69   2.0000      -0.310961        -8.4617 
  70   2.0000      -0.285180        -7.7602 
  71   0.0000       0.044943         1.2230 
  72   0.0000       0.062037         1.6881 
  73   0.0000       0.071173         1.9367 
  74   0.0000       0.085858         2.3363 
  75   0.0000       0.101241         2.7549 
  76   0.0000       0.106920         2.9094 
  77   0.0000       0.112138         3.0514 
  78   0.0000       0.113459         3.0874 
  79   0.0000       0.127847         3.4789 
  80   0.0000       0.139236         3.7888 
  81   0.0000       0.147425         4.0116 
*Only the first 10 virtual orbitals were printed.

                    ********************************
                    * MULLIKEN POPULATION ANALYSIS *
                    ********************************

-----------------------
MULLIKEN ATOMIC CHARGES
-----------------------
   0 O :   -0.298200
   1 O :   -0.297236
   2 C :    0.034982
   3 C :    0.091257
   4 C :   -0.032472
   5 C :   -0.173593
   6 C :   -0.044026
   7 C :   -0.151159
   8 C :    0.204909
   9 C :   -0.145782
  10 C :    0.236375
  11 C :   -0.085915
  12 C :   -0.076116
  13 C :   -0.101821
  14 C :   -0.165321
  15 C :   -0.179097
  16 C :   -0.142841
  17 C :   -0.138267
  18 C :   -0.209242
  19 C :   -0.221107
  20 H :    0.107320
  21 H :    0.120734
  22 H :    0.108568
  23 H :    0.086127
  24 H :    0.088360
  25 H :    0.080167
  26 H :    0.087780
  27 H :    0.105380
  28 H :    0.083156
  29 H :    0.082503
  30 H :    0.105980
  31 H :    0.111496
  32 H :    0.180274
  33 H :    0.179976
  34 H :    0.099011
  35 H :    0.080434
  36 H :    0.102564
  37 H :    0.084844
Sum of atomic charges:    0.0000000

--------------------------------
MULLIKEN REDUCED ORBITAL CHARGES
--------------------------------
  0 O s       :     3.762604  s :     3.762604
      pz      :     1.765932  p :     4.506473
      px      :     1.541847
      py      :     1.198694
      dz2     :     0.003556  d :     0.027877
      dxz     :     0.004360
      dyz     :     0.003025
      dx2y2   :     0.005320
      dxy     :     0.011615
      f0      :     0.000224  f :     0.001246
      f+1     :     0.000156
      f-1     :     0.000235
      f+2     :     0.000030
      f-2     :     0.000156
      f+3     :     0.000258
      f-3     :     0.000187

  1 O s       :     3.754641  s :     3.754641
      pz      :     1.603097  p :     4.513501
      px      :     1.327310
      py      :     1.583094
      dz2     :     0.003394  d :     0.027832
      dxz     :     0.004967
      dyz     :     0.004323
      dx2y2   :     0.007671
      dxy     :     0.007477
      f0      :     0.000172  f :     0.001262
      f+1     :     0.000241
      f-1     :     0.000064
      f+2     :     0.000203
      f-2     :     0.000113
      f+3     :     0.000246
      f-3     :     0.000224

  2 C s       :     3.274821  s :     3.274821
      pz      :     0.982169  p :     2.553550
      px      :     0.719345
      py      :     0.852036
      dz2     :     0.008121  d :     0.126839
      dxz     :     0.022794
      dyz     :     0.022738
      dx2y2   :     0.031186
      dxy     :     0.042001
      f0      :     0.001560  f :     0.009808
      f+1     :     0.000922
      f-1     :     0.000914
      f+2     :     0.000883
      f-2     :     0.001231
      f+3     :     0.001809
      f-3     :     0.002489

  3 C s       :     3.257359  s :     3.257359
      pz      :     0.935715  p :     2.498230
      px      :     0.668722
      py      :     0.893793
      dz2     :     0.022992  d :     0.143300
      dxz     :     0.032116
      dyz     :     0.017379
      dx2y2   :     0.035928
      dxy     :     0.034886
      f0      :     0.000834  f :     0.009853
      f+1     :     0.001199
      f-1     :     0.001597
      f+2     :     0.001819
      f-2     :     0.001118
      f+3     :     0.001317
      f-3     :     0.001970

  4 C s       :     3.225564  s :     3.225564
      pz      :     0.913001  p :     2.662436
      px      :     0.886945
      py      :     0.862491
      dz2     :     0.023044  d :     0.134659
      dxz     :     0.024368
      dyz     :     0.018952
      dx2y2   :     0.030560
      dxy     :     0.037736
      f0      :     0.001000  f :     0.009813
      f+1     :     0.001235
      f-1     :     0.001339
      f+2     :     0.001905
      f-2     :     0.001250
      f+3     :     0.001420
      f-3     :     0.001665

  5 C s       :     3.119373  s :     3.119373
      pz      :     1.006795  p :     2.941096
      px      :     0.945194
      py      :     0.989108
      dz2     :     0.010771  d :     0.105516
      dxz     :     0.026639
      dyz     :     0.012402
      dx2y2   :     0.023399
      dxy     :     0.032305
      f0      :     0.000669  f :     0.007607
      f+1     :     0.000772
      f-1     :     0.001162
      f+2     :     0.001188
      f-2     :     0.000966
      f+3     :     0.001071
      f-3     :     0.001779

  6 C s       :     3.225299  s :     3.225299
      pz      :     0.960159  p :     2.658830
      px      :     0.867291
      py      :     0.831380
      dz2     :     0.008705  d :     0.150212
      dxz     :     0.022029
      dyz     :     0.022034
      dx2y2   :     0.049834
      dxy     :     0.047610
      f0      :     0.001335  f :     0.009685
      f+1     :     0.000968
      f-1     :     0.001024
      f+2     :     0.001110
      f-2     :     0.000893
      f+3     :     0.001670
      f-3     :     0.002683

  7 C s       :     3.093319  s :     3.093319
      pz      :     0.957069  p :     2.945500
      px      :     0.939025
      py      :     1.049406
      dz2     :     0.003315  d :     0.104664
      dxz     :     0.022570
      dyz     :     0.010501
      dx2y2   :     0.035663
      dxy     :     0.032616
      f0      :     0.001286  f :     0.007675
      f+1     :     0.000867
      f-1     :     0.000515
      f+2     :     0.000674
      f-2     :     0.001045
      f+3     :     0.001155
      f-3     :     0.002134

  8 C s       :     3.090837  s :     3.090837
      pz      :     0.940629  p :     2.515143
      px      :     0.825611
      py      :     0.748903
      dz2     :     0.007853  d :     0.173377
      dxz     :     0.032530
      dyz     :     0.037218
      dx2y2   :     0.059919
      dxy     :     0.035856
      f0      :     0.002201  f :     0.015735
      f+1     :     0.001289
      f-1     :     0.001286
      f+2     :     0.001084
      f-2     :     0.002662
      f+3     :     0.002371
      f-3     :     0.004841

  9 C s       :     3.171089  s :     3.171089
      pz      :     0.935133  p :     2.864591
      px      :     0.950185
      py      :     0.979273
      dz2     :     0.015238  d :     0.102526
      dxz     :     0.024528
      dyz     :     0.011236
      dx2y2   :     0.022114
      dxy     :     0.029409
      f0      :     0.000897  f :     0.007576
      f+1     :     0.001012
      f-1     :     0.000865
      f+2     :     0.001631
      f-2     :     0.000772
      f+3     :     0.001188
      f-3     :     0.001212

 10 C s       :     3.070865  s :     3.070865
      pz      :     0.901289  p :     2.502249
      px      :     0.679731
      py      :     0.921229
      dz2     :     0.027620  d :     0.174682
      dxz     :     0.044678
      dyz     :     0.017700
      dx2y2   :     0.033895
      dxy     :     0.050788
      f0      :     0.001552  f :     0.015830
      f+1     :     0.001998
      f-1     :     0.001911
      f+2     :     0.002914
      f-2     :     0.001426
      f+3     :     0.002457
      f-3     :     0.003571

 11 C s       :     3.176756  s :     3.176756
      pz      :     0.924567  p :     2.807711
      px      :     0.983833
      py      :     0.899311
      dz2     :     0.019533  d :     0.096573
      dxz     :     0.021590
      dyz     :     0.019613
      dx2y2   :     0.011337
      dxy     :     0.024500
      f0      :     0.000544  f :     0.004874
      f+1     :     0.000715
      f-1     :     0.000751
      f+2     :     0.000781
      f-2     :     0.001076
      f+3     :     0.000418
      f-3     :     0.000591

 12 C s       :     3.181086  s :     3.181086
      pz      :     0.984641  p :     2.795146
      px      :     0.938953
      py      :     0.871552
      dz2     :     0.021218  d :     0.095082
      dxz     :     0.010946
      dyz     :     0.021092
      dx2y2   :     0.023520
      dxy     :     0.018306
      f0      :     0.000655  f :     0.004803
      f+1     :     0.000181
      f-1     :     0.000913
      f+2     :     0.000368
      f-2     :     0.000810
      f+3     :     0.000792
      f-3     :     0.001085

 13 C s       :     3.115211  s :     3.115211
      pz      :     0.965393  p :     2.874017
      px      :     1.000794
      py      :     0.907830
      dz2     :     0.003988  d :     0.105021
      dxz     :     0.008777
      dyz     :     0.025477
      dx2y2   :     0.040451
      dxy     :     0.026329
      f0      :     0.001274  f :     0.007571
      f+1     :     0.000575
      f-1     :     0.000826
      f+2     :     0.000480
      f-2     :     0.001245
      f+3     :     0.001271
      f-3     :     0.001901

 14 C s       :     3.150371  s :     3.150371
      pz      :     1.019413  p :     2.923555
      px      :     0.967240
      py      :     0.936903
      dz2     :     0.008059  d :     0.084123
      dxz     :     0.021583
      dyz     :     0.013707
      dx2y2   :     0.021799
      dxy     :     0.018975
      f0      :     0.000648  f :     0.007273
      f+1     :     0.000739
      f-1     :     0.001154
      f+2     :     0.001160
      f-2     :     0.000980
      f+3     :     0.000999
      f-3     :     0.001591

 15 C s       :     3.163295  s :     3.163295
      pz      :     1.039869  p :     2.923603
      px      :     0.880019
      py      :     1.003715
      dz2     :     0.006757  d :     0.084847
      dxz     :     0.020820
      dyz     :     0.008931
      dx2y2   :     0.027372
      dxy     :     0.020967
      f0      :     0.001326  f :     0.007353
      f+1     :     0.000864
      f-1     :     0.000551
      f+2     :     0.000635
      f-2     :     0.000982
      f+3     :     0.001042
      f-3     :     0.001953

 16 C s       :     3.205993  s :     3.205993
      pz      :     0.941591  p :     2.826387
      px      :     0.943561
      py      :     0.941234
      dz2     :     0.014807  d :     0.103773
      dxz     :     0.039197
      dyz     :     0.012040
      dx2y2   :     0.010397
      dxy     :     0.027332
      f0      :     0.000947  f :     0.006688
      f+1     :     0.000739
      f-1     :     0.000686
      f+2     :     0.001516
      f-2     :     0.000679
      f+3     :     0.000518
      f-3     :     0.001603

 17 C s       :     3.200091  s :     3.200091
      pz      :     0.974856  p :     2.825606
      px      :     0.927739
      py      :     0.923010
      dz2     :     0.032245  d :     0.105910
      dxz     :     0.005581
      dyz     :     0.028353
      dx2y2   :     0.014554
      dxy     :     0.025177
      f0      :     0.000669  f :     0.006660
      f+1     :     0.000214
      f-1     :     0.001461
      f+2     :     0.000996
      f-2     :     0.000818
      f+3     :     0.001307
      f-3     :     0.001194

 18 C s       :     3.194916  s :     3.194916
      pz      :     1.008306  p :     2.945427
      px      :     0.936849
      py      :     1.000271
      dz2     :     0.004808  d :     0.064516
      dxz     :     0.033727
      dyz     :     0.002971
      dx2y2   :     0.005733
      dxy     :     0.017277
      f0      :     0.000414  f :     0.004383
      f+1     :     0.000347
      f-1     :     0.000371
      f+2     :     0.001064
      f-2     :     0.000276
      f+3     :     0.000384
      f-3     :     0.001527

 19 C s       :     3.196538  s :     3.196538
      pz      :     1.011620  p :     2.955173
      px      :     0.997226
      py      :     0.946327
      dz2     :     0.015994  d :     0.065032
      dxz     :     0.002367
      dyz     :     0.025329
      dx2y2   :     0.008206
      dxy     :     0.013136
      f0      :     0.000431  f :     0.004365
      f+1     :     0.000092
      f-1     :     0.000750
      f+2     :     0.000654
      f-2     :     0.000459
      f+3     :     0.001120
      f-3     :     0.000858

 20 H s       :     0.849650  s :     0.849650
      pz      :     0.013718  p :     0.040816
      px      :     0.013664
      py      :     0.013434
      dz2     :     0.000477  d :     0.002215
      dxz     :     0.000401
      dyz     :     0.000393
      dx2y2   :     0.000594
      dxy     :     0.000350

 21 H s       :     0.835957  s :     0.835957
      pz      :     0.010610  p :     0.041092
      px      :     0.011523
      py      :     0.018958
      dz2     :     0.000172  d :     0.002218
      dxz     :     0.000130
      dyz     :     0.000552
      dx2y2   :     0.000640
      dxy     :     0.000724

 22 H s       :     0.850270  s :     0.850270
      pz      :     0.011810  p :     0.039067
      px      :     0.010607
      py      :     0.016650
      dz2     :     0.000336  d :     0.002095
      dxz     :     0.000232
      dyz     :     0.000507
      dx2y2   :     0.000555
      dxy     :     0.000466

 23 H s       :     0.874086  s :     0.874086
      pz      :     0.010546  p :     0.037633
      px      :     0.013827
      py      :     0.013259
      dz2     :     0.000251  d :     0.002154
      dxz     :     0.000432
      dyz     :     0.000376
      dx2y2   :     0.000683
      dxy     :     0.000411

 24 H s       :     0.871622  s :     0.871622
      pz      :     0.012971  p :     0.037809
      px      :     0.012631
      py      :     0.012207
      dz2     :     0.000620  d :     0.002208
      dxz     :     0.000370
      dyz     :     0.000400
      dx2y2   :     0.000408
      dxy     :     0.000410

 25 H s       :     0.880507  s :     0.880507
      pz      :     0.010293  p :     0.037164
      px      :     0.016470
      py      :     0.010400
      dz2     :     0.000255  d :     0.002163
      dxz     :     0.000536
      dyz     :     0.000156
      dx2y2   :     0.000557
      dxy     :     0.000660

 26 H s       :     0.873596  s :     0.873596
      pz      :     0.016611  p :     0.036504
      px      :     0.009649
      py      :     0.010244
      dz2     :     0.000633  d :     0.002120
      dxz     :     0.000614
      dyz     :     0.000635
      dx2y2   :     0.000089
      dxy     :     0.000149

 27 H s       :     0.854836  s :     0.854836
      pz      :     0.011472  p :     0.037729
      px      :     0.016296
      py      :     0.009962
      dz2     :     0.000161  d :     0.002055
      dxz     :     0.000563
      dyz     :     0.000072
      dx2y2   :     0.000411
      dxy     :     0.000848

 28 H s       :     0.876737  s :     0.876737
      pz      :     0.014403  p :     0.038074
      px      :     0.010254
      py      :     0.013417
      dz2     :     0.000491  d :     0.002034
      dxz     :     0.000335
      dyz     :     0.000389
      dx2y2   :     0.000534
      dxy     :     0.000285

 29 H s       :     0.877166  s :     0.877166
      pz      :     0.012808  p :     0.038300
      px      :     0.010484
      py      :     0.015008
      dz2     :     0.000188  d :     0.002032
      dxz     :     0.000122
      dyz     :     0.000554
      dx2y2   :     0.000500
      dxy     :     0.000667

 30 H s       :     0.856105  s :     0.856105
      pz      :     0.014730  p :     0.035883
      px      :     0.009357
      py      :     0.011796
      dz2     :     0.000615  d :     0.002032
      dxz     :     0.000406
      dyz     :     0.000351
      dx2y2   :     0.000347
      dxy     :     0.000312

 31 H s       :     0.850569  s :     0.850569
      pz      :     0.017770  p :     0.035894
      px      :     0.009844
      py      :     0.008279
      dz2     :     0.000546  d :     0.002041
      dxz     :     0.000594
      dyz     :     0.000748
      dx2y2   :     0.000066
      dxy     :     0.000088

 32 H s       :     0.720770  s :     0.720770
      pz      :     0.035213  p :     0.089492
      px      :     0.026959
      py      :     0.027321
      dz2     :     0.001251  d :     0.009464
      dxz     :     0.000934
      dyz     :     0.002484
      dx2y2   :     0.002037
      dxy     :     0.002758

 33 H s       :     0.720295  s :     0.720295
      pz      :     0.036151  p :     0.090257
      px      :     0.020562
      py      :     0.033543
      dz2     :     0.002451  d :     0.009473
      dxz     :     0.001296
      dyz     :     0.002497
      dx2y2   :     0.001511
      dxy     :     0.001718

 34 H s       :     0.863097  s :     0.863097
      pz      :     0.014056  p :     0.036068
      px      :     0.009777
      py      :     0.012235
      dz2     :     0.000498  d :     0.001824
      dxz     :     0.000418
      dyz     :     0.000384
      dx2y2   :     0.000248
      dxy     :     0.000276

 35 H s       :     0.878309  s :     0.878309
      pz      :     0.014026  p :     0.039263
      px      :     0.012679
      py      :     0.012558
      dz2     :     0.000536  d :     0.001994
      dxz     :     0.000438
      dyz     :     0.000316
      dx2y2   :     0.000360
      dxy     :     0.000344

 36 H s       :     0.858939  s :     0.858939
      pz      :     0.011799  p :     0.036643
      px      :     0.011793
      py      :     0.013051
      dz2     :     0.000495  d :     0.001854
      dxz     :     0.000208
      dyz     :     0.000341
      dx2y2   :     0.000396
      dxy     :     0.000414

 37 H s       :     0.874382  s :     0.874382
      pz      :     0.018193  p :     0.038819
      px      :     0.011039
      py      :     0.009587
      dz2     :     0.000470  d :     0.001955
      dxz     :     0.000593
      dyz     :     0.000714
      dx2y2   :     0.000075
      dxy     :     0.000103



                     *******************************
                     * LOEWDIN POPULATION ANALYSIS *
                     *******************************

----------------------
LOEWDIN ATOMIC CHARGES
----------------------
   0 O :    0.356242
   1 O :    0.357028
   2 C :   -0.058756
   3 C :   -0.074739
   4 C :   -0.072928
   5 C :    0.015402
   6 C :   -0.088830
   7 C :    0.021198
   8 C :   -0.186458
   9 C :    0.005749
  10 C :   -0.188495
  11 C :   -0.025397
  12 C :   -0.025838
  13 C :   -0.013905
  14 C :   -0.037006
  15 C :   -0.038944
  16 C :   -0.035330
  17 C :   -0.036266
  18 C :   -0.000003
  19 C :   -0.004069
  20 H :    0.031986
  21 H :    0.035845
  22 H :    0.028144
  23 H :    0.033550
  24 H :    0.036441
  25 H :    0.034081
  26 H :    0.036474
  27 H :    0.024290
  28 H :    0.017277
  29 H :    0.017216
  30 H :    0.019560
  31 H :    0.021824
  32 H :   -0.110288
  33 H :   -0.109289
  34 H :    0.002385
  35 H :    0.004474
  36 H :    0.003802
  37 H :    0.003575

-------------------------------
LOEWDIN REDUCED ORBITAL CHARGES
-------------------------------
  0 O s       :     3.206235  s :     3.206235
      pz      :     1.603007  p :     4.355930
      px      :     1.511579
      py      :     1.241345
      dz2     :     0.007309  d :     0.076234
      dxz     :     0.007570
      dyz     :     0.010981
      dx2y2   :     0.019440
      dxy     :     0.030936
      f0      :     0.000570  f :     0.005359
      f+1     :     0.000270
      f-1     :     0.000556
      f+2     :     0.000125
      f-2     :     0.000897
      f+3     :     0.001415
      f-3     :     0.001526

  1 O s       :     3.204786  s :     3.204786
      pz      :     1.505801  p :     4.356575
      px      :     1.326087
      py      :     1.524687
      dz2     :     0.006597  d :     0.076253
      dxz     :     0.018274
      dyz     :     0.010533
      dx2y2   :     0.019888
      dxy     :     0.020961
      f0      :     0.000534  f :     0.005358
      f+1     :     0.000701
      f-1     :     0.000440
      f+2     :     0.000639
      f-2     :     0.000696
      f+3     :     0.001066
      f-3     :     0.001281

  2 C s       :     2.691378  s :     2.691378
      pz      :     0.868185  p :     2.831180
      px      :     0.958704
      py      :     1.004291
      dz2     :     0.036453  d :     0.482241
      dxz     :     0.070776
      dyz     :     0.072305
      dx2y2   :     0.157021
      dxy     :     0.145684
      f0      :     0.003957  f :     0.053958
      f+1     :     0.004251
      f-1     :     0.004498
      f+2     :     0.005635
      f-2     :     0.007890
      f+3     :     0.011840
      f-3     :     0.015887

  3 C s       :     2.690299  s :     2.690299
      pz      :     0.928283  p :     2.836394
      px      :     0.942102
      py      :     0.966009
      dz2     :     0.076775  d :     0.493007
      dxz     :     0.098156
      dyz     :     0.072284
      dx2y2   :     0.130322
      dxy     :     0.115470
      f0      :     0.005156  f :     0.055039
      f+1     :     0.006665
      f-1     :     0.005661
      f+2     :     0.010718
      f-2     :     0.006349
      f+3     :     0.008262
      f-3     :     0.012228

  4 C s       :     2.699383  s :     2.699383
      pz      :     0.909945  p :     2.835578
      px      :     1.000039
      py      :     0.925594
      dz2     :     0.072816  d :     0.483773
      dxz     :     0.104235
      dyz     :     0.070197
      dx2y2   :     0.111308
      dxy     :     0.125216
      f0      :     0.005531  f :     0.054195
      f+1     :     0.006536
      f-1     :     0.006088
      f+2     :     0.010017
      f-2     :     0.006292
      f+3     :     0.008644
      f-3     :     0.011086

  5 C s       :     2.708870  s :     2.708870
      pz      :     0.903914  p :     2.834820
      px      :     0.986361
      py      :     0.944545
      dz2     :     0.038511  d :     0.397961
      dxz     :     0.090290
      dyz     :     0.057954
      dx2y2   :     0.094669
      dxy     :     0.116537
      f0      :     0.003873  f :     0.042948
      f+1     :     0.005117
      f-1     :     0.004484
      f+2     :     0.006809
      f-2     :     0.004598
      f+3     :     0.007034
      f-3     :     0.011031

  6 C s       :     2.700897  s :     2.700897
      pz      :     0.863630  p :     2.836094
      px      :     0.993580
      py      :     0.978884
      dz2     :     0.038080  d :     0.497023
      dxz     :     0.071763
      dyz     :     0.073149
      dx2y2   :     0.152341
      dxy     :     0.161690
      f0      :     0.003940  f :     0.054816
      f+1     :     0.004095
      f-1     :     0.004213
      f+2     :     0.007432
      f-2     :     0.006409
      f+3     :     0.011102
      f-3     :     0.017624

  7 C s       :     2.707616  s :     2.707616
      pz      :     0.851950  p :     2.832854
      px      :     1.000743
      py      :     0.980160
      dz2     :     0.027230  d :     0.395369
      dxz     :     0.074891
      dyz     :     0.032504
      dx2y2   :     0.134414
      dxy     :     0.126330
      f0      :     0.002894  f :     0.042963
      f+1     :     0.004317
      f-1     :     0.002409
      f+2     :     0.004542
      f-2     :     0.006082
      f+3     :     0.009444
      f-3     :     0.013275

  8 C s       :     2.703156  s :     2.703156
      pz      :     0.862280  p :     2.723827
      px      :     0.963305
      py      :     0.898242
      dz2     :     0.051723  d :     0.664419
      dxz     :     0.104046
      dyz     :     0.111691
      dx2y2   :     0.187133
      dxy     :     0.209825
      f0      :     0.007206  f :     0.095055
      f+1     :     0.006960
      f-1     :     0.006862
      f+2     :     0.007537
      f-2     :     0.017459
      f+3     :     0.018107
      f-3     :     0.030924

  9 C s       :     2.715566  s :     2.715566
      pz      :     0.904043  p :     2.837589
      px      :     0.995006
      py      :     0.938540
      dz2     :     0.054674  d :     0.397797
      dxz     :     0.093407
      dyz     :     0.050561
      dx2y2   :     0.094165
      dxy     :     0.104991
      f0      :     0.005478  f :     0.043299
      f+1     :     0.004996
      f-1     :     0.003416
      f+2     :     0.008371
      f-2     :     0.004835
      f+3     :     0.008098
      f-3     :     0.008105

 10 C s       :     2.702479  s :     2.702479
      pz      :     0.921440  p :     2.722657
      px      :     0.821131
      py      :     0.980086
      dz2     :     0.099640  d :     0.667625
      dxz     :     0.144717
      dyz     :     0.080909
      dx2y2   :     0.167233
      dxy     :     0.175126
      f0      :     0.009564  f :     0.095734
      f+1     :     0.012810
      f-1     :     0.007759
      f+2     :     0.016891
[...]
      dyz     :     0.000630
      dx2y2   :     0.007893
      dxy     :     0.008656

 28 H s       :     0.807727  s :     0.807727
      pz      :     0.054466  p :     0.146861
      px      :     0.043237
      py      :     0.049158
      dz2     :     0.006356  d :     0.028136
      dxz     :     0.005484
      dyz     :     0.005777
      dx2y2   :     0.005468
      dxy     :     0.005049

 29 H s       :     0.807521  s :     0.807521
      pz      :     0.045873  p :     0.147088
      px      :     0.036979
      py      :     0.064236
      dz2     :     0.003032  d :     0.028175
      dxz     :     0.001328
      dyz     :     0.007717
      dx2y2   :     0.007856
      dxy     :     0.008242

 30 H s       :     0.808490  s :     0.808490
      pz      :     0.056279  p :     0.144219
      px      :     0.042581
      py      :     0.045359
      dz2     :     0.007351  d :     0.027731
      dxz     :     0.006711
      dyz     :     0.005875
      dx2y2   :     0.003872
      dxy     :     0.003922

 31 H s       :     0.806614  s :     0.806614
      pz      :     0.071488  p :     0.143843
      px      :     0.037720
      py      :     0.034635
      dz2     :     0.010510  d :     0.027719
      dxz     :     0.007375
      dyz     :     0.008536
      dx2y2   :     0.000582
      dxy     :     0.000715

 32 H s       :     0.677799  s :     0.677799
      pz      :     0.107673  p :     0.335240
      px      :     0.110077
      py      :     0.117490
      dz2     :     0.011764  d :     0.097248
      dxz     :     0.009500
      dyz     :     0.025075
      dx2y2   :     0.024081
      dxy     :     0.026828

 33 H s       :     0.677589  s :     0.677589
      pz      :     0.126088  p :     0.334559
      px      :     0.075388
      py      :     0.133083
      dz2     :     0.025597  d :     0.097140
      dxz     :     0.014013
      dyz     :     0.021751
      dx2y2   :     0.019349
      dxy     :     0.016430

 34 H s       :     0.822669  s :     0.822669
      pz      :     0.061648  p :     0.147447
      px      :     0.040963
      py      :     0.044836
      dz2     :     0.008122  d :     0.027499
      dxz     :     0.007241
      dyz     :     0.006103
      dx2y2   :     0.002919
      dxy     :     0.003115

 35 H s       :     0.821500  s :     0.821500
      pz      :     0.057979  p :     0.146352
      px      :     0.042098
      py      :     0.046275
      dz2     :     0.007295  d :     0.027674
      dxz     :     0.006803
      dyz     :     0.005553
      dx2y2   :     0.003947
      dxy     :     0.004077

 36 H s       :     0.821137  s :     0.821137
      pz      :     0.052243  p :     0.147544
      px      :     0.044176
      py      :     0.051124
      dz2     :     0.006615  d :     0.027518
      dxz     :     0.003722
      dyz     :     0.007277
      dx2y2   :     0.004866
      dxy     :     0.005037

 37 H s       :     0.821977  s :     0.821977
      pz      :     0.071087  p :     0.146868
      px      :     0.040980
      py      :     0.034802
      dz2     :     0.009933  d :     0.027580
      dxz     :     0.007567
      dyz     :     0.008608
      dx2y2   :     0.000657
      dxy     :     0.000815



                      *****************************
                      * MAYER POPULATION ANALYSIS *
                      *****************************

  NA   - Mulliken gross atomic population
  ZA   - Total nuclear charge
  QA   - Mulliken gross atomic charge
  VA   - Mayer's total valence
  BVA  - Mayer's bonded valence
  FA   - Mayer's free valence

  ATOM       NA         ZA         QA         VA         BVA        FA
  0 O      8.2982     8.0000    -0.2982     2.1704     2.1704    -0.0000
  1 O      8.2972     8.0000    -0.2972     2.1782     2.1782     0.0000
  2 C      5.9650     6.0000     0.0350     3.6371     3.6371    -0.0000
  3 C      5.9087     6.0000     0.0913     3.6288     3.6288     0.0000
  4 C      6.0325     6.0000    -0.0325     3.7774     3.7774     0.0000
  5 C      6.1736     6.0000    -0.1736     3.9913     3.9913    -0.0000
  6 C      6.0440     6.0000    -0.0440     3.8103     3.8103     0.0000
  7 C      6.1512     6.0000    -0.1512     3.9481     3.9481    -0.0000
  8 C      5.7951     6.0000     0.2049     3.9280     3.9280    -0.0000
  9 C      6.1458     6.0000    -0.1458     4.0198     4.0198     0.0000
 10 C      5.7636     6.0000     0.2364     3.9362     3.9362     0.0000
 11 C      6.0859     6.0000    -0.0859     3.8887     3.8887     0.0000
 12 C      6.0761     6.0000    -0.0761     3.8817     3.8817     0.0000
 13 C      6.1018     6.0000    -0.1018     3.9855     3.9855     0.0000
 14 C      6.1653     6.0000    -0.1653     3.9304     3.9304     0.0000
 15 C      6.1791     6.0000    -0.1791     3.9540     3.9540    -0.0000
 16 C      6.1428     6.0000    -0.1428     3.8327     3.8327    -0.0000
 17 C      6.1383     6.0000    -0.1383     3.8263     3.8263    -0.0000
 18 C      6.2092     6.0000    -0.2092     3.9774     3.9774    -0.0000
 19 C      6.2211     6.0000    -0.2211     3.9619     3.9619     0.0000
 20 H      0.8927     1.0000     0.1073     1.0122     1.0122    -0.0000
 21 H      0.8793     1.0000     0.1207     1.0101     1.0101    -0.0000
 22 H      0.8914     1.0000     0.1086     1.0255     1.0255    -0.0000
 23 H      0.9139     1.0000     0.0861     1.0063     1.0063     0.0000
 24 H      0.9116     1.0000     0.0884     1.0160     1.0160    -0.0000
 25 H      0.9198     1.0000     0.0802     1.0074     1.0074    -0.0000
 26 H      0.9122     1.0000     0.0878     1.0050     1.0050     0.0000
 27 H      0.8946     1.0000     0.1054     1.0079     1.0079    -0.0000
 28 H      0.9168     1.0000     0.0832     1.0162     1.0162     0.0000
 29 H      0.9175     1.0000     0.0825     1.0187     1.0187     0.0000
 30 H      0.8940     1.0000     0.1060     1.0101     1.0101     0.0000
 31 H      0.8885     1.0000     0.1115     1.0086     1.0086    -0.0000
 32 H      0.8197     1.0000     0.1803     1.0516     1.0516    -0.0000
 33 H      0.8200     1.0000     0.1800     1.0529     1.0529     0.0000
 34 H      0.9010     1.0000     0.0990     1.0063     1.0063    -0.0000
 35 H      0.9196     1.0000     0.0804     1.0167     1.0167    -0.0000
 36 H      0.8974     1.0000     0.1026     1.0088     1.0088     0.0000
 37 H      0.9152     1.0000     0.0848     1.0132     1.0132    -0.0000

  Mayer bond orders larger than 0.100000
B(  0-O ,  8-C ) :   1.1245 B(  0-O , 32-H ) :   1.0072 B(  1-O , 10-C ) :   1.1228 
B(  1-O , 33-H ) :   1.0106 B(  2-C ,  3-C ) :   0.8831 B(  2-C ,  7-C ) :   1.4260 
B(  2-C ,  8-C ) :   1.3282 B(  3-C ,  5-C ) :   1.3991 B(  3-C ,  9-C ) :   1.3705 
B(  4-C ,  5-C ) :   1.4476 B(  4-C , 10-C ) :   1.3499 B(  4-C , 11-C ) :   0.9219 
B(  5-C , 20-H ) :   0.9599 B(  6-C ,  7-C ) :   1.4228 B(  6-C , 12-C ) :   0.9286 
B(  6-C , 13-C ) :   1.4039 B(  7-C , 21-H ) :   0.9467 B(  8-C , 15-C ) :   1.4126 
B(  9-C , 14-C ) :   1.4828 B(  9-C , 22-H ) :   0.9596 B( 10-C , 14-C ) :   1.3850 
B( 11-C , 16-C ) :   0.9277 B( 11-C , 23-H ) :   1.0131 B( 11-C , 24-H ) :   0.9966 
B( 12-C , 17-C ) :   0.9323 B( 12-C , 25-H ) :   1.0012 B( 12-C , 26-H ) :   0.9983 
B( 13-C , 15-C ) :   1.4563 B( 13-C , 27-H ) :   0.9603 B( 14-C , 28-H ) :   0.9634 
B( 15-C , 29-H ) :   0.9653 B( 16-C , 18-C ) :   1.9245 B( 16-C , 30-H ) :   0.9767 
B( 17-C , 19-C ) :   1.9071 B( 17-C , 31-H ) :   0.9801 B( 18-C , 34-H ) :   0.9930 
B( 18-C , 35-H ) :   0.9965 B( 19-C , 36-H ) :   0.9965 B( 19-C , 37-H ) :   0.9971 


-------
TIMINGS
-------

Total SCF time: 0 days 0 hours 0 min 50 sec 

Total time                  ....      50.335 sec
Sum of individual times     ....      50.304 sec  ( 99.9%)

SCF preparation             ....       0.844 sec  (  1.7%)
Fock matrix formation       ....      44.421 sec  ( 88.3%)
  Startup                   ....       0.163 sec  (  0.4% of F)
  Split-RI-J                ....       2.760 sec  (  6.2% of F)
  Chain of spheres X        ....      37.550 sec  ( 84.5% of F)
  XC integration            ....       3.292 sec  (  7.4% of F)
    XC Preparation          ....       0.000 sec  (  0.0% of XC)
    Basis function eval.    ....       0.654 sec  ( 19.9% of XC)
    Density eval.           ....       0.806 sec  ( 24.5% of XC)
    XC-Functional eval.     ....       0.079 sec  (  2.4% of XC)
    XC-Potential eval.      ....       1.009 sec  ( 30.7% of XC)
Diagonalization             ....       0.000 sec  (  0.0%)
Density matrix formation    ....       0.482 sec  (  1.0%)
Total Energy calculation    ....       0.212 sec  (  0.4%)
Population analysis         ....       0.193 sec  (  0.4%)
Orbital Transformation      ....       0.520 sec  (  1.0%)
Orbital Orthonormalization  ....       0.000 sec  (  0.0%)
DIIS solution               ....       2.471 sec  (  4.9%)
SOSCF solution              ....       1.161 sec  (  2.3%)
Finished LeanSCF after  50.4 sec

Maximum memory used throughout the entire LEANSCF-calculation: 122.8 MB


-------------------------------------------------------------------------------
                          DFT DISPERSION CORRECTION                            
                                                                               
                              DFTD3 V3.1  Rev 1                                
                              USING zero damping                               
-------------------------------------------------------------------------------
The omegaB97X-D3 functional is recognized. Fit by Chai et al.
Active option DFTDOPT                   ...         3   

molecular C6(AA) [au] = 16057.657215 


            DFT-D V3
 parameters
 s6 scaling factor         :     1.0000 
 rs6 scaling factor        :     1.2810 
 s8 scaling factor         :     1.0000 
 rs8 scaling factor        :     1.0940 
 Damping factor alpha6     :    14.0000 
 Damping factor alpha8     :    16.0000 
 ad hoc parameters k1-k3   :    16.0000     1.3333    -4.0000 

 Edisp/kcal,au: -9.940803988299  -0.015841677837 
 E6   /kcal   :  -4.720073338 
 E8   /kcal   :  -5.220730651 
 % E8         :  52.518193265 

-------------------------   ----------------
Dispersion correction           -0.015841678
-------------------------   ----------------


-------------------------   --------------------
FINAL SINGLE POINT ENERGY      -847.243376104599
-------------------------   --------------------

--------------------------------------------------------------------------
WARNING: There was an error initializing an OpenFabrics device.

  Local host:   ga01
  Local device: mlx5_0
--------------------------------------------------------------------------


           ************************************************************
           *        Program running with 28 parallel MPI-processes    *
           *              working on a common directory               *
           ************************************************************

------------------------------------------------------------------------------
                              ORCA PROPERTY CALCULATIONS
------------------------------------------------------------------------------

GBWName                                 ... honokiol_2_SP.gbw
Number of atoms                         ...     38
Number of basis functions               ...    872
Max core memory                         ...   5000 MB

Electric properties:
Dipole moment                           ... YES
Quadrupole moment                       ...  NO
Static polarizability (Dipole/Dipole)   ...  NO
Static polarizability (Dipole/Quad.)    ...  NO
Static polarizability (Quad./Quad.)     ...  NO
Static polarizability (Velocity)        ...  NO

Atomic electric properties:
Dipole moment                           ...  NO
Quadrupole moment                       ...  NO
Static polarizability                   ...  NO

Choice of electric origin               ... Center of mass
Position of electric origin             ...    -0.034745     0.141246     0.057322

General magnetic properties:
Magnetizability                         ...  NO

EPR properties:
g-Tensor (aka g-matrix)                 ...  NO
Zero-Field splitting spin-orbit         ...  NO
Zero-field splitting spin-spin          ...  NO
Hyperfine couplings                     ...  NO (   0 nuclei)
Quadrupole couplings                    ...  NO (   0 nuclei)
Contact density                         ...  NO (   0 nuclei)

NMR properties:
Chemical shifts                         ...  NO (   0 nuclei)
Spin-rotation constants                 ...  NO (   0 nuclei)
Spin-spin couplings                     ...  NO (   0 nuclei,    0 pairs)

Choice of magnetic origin               ... GIAO
Position of magnetic origin             ...     0.000000     0.000000     0.000000

Properties with geometric perturbations:
SCF Hessian                             ...  NO
IR spectrum                             ...  NO
VCD spectrum                            ...  NO
X-ray spectroscopy properties:
SCF XES/XAS/RIXS spectra                ...  NO


-------------
DIPOLE MOMENT
-------------

Method             : SCF
Type of density    : Electron Density
Multiplicity       :   1
Irrep              :   0
Energy             :  -847.2275344267616219 Eh
Relativity type    : 
Basis              : AO
                                X                 Y                 Z
Electronic contribution:     -1.878625966      10.656263931       4.569626580
Nuclear contribution   :      2.199504509      -9.854718116      -4.319736557
                        -----------------------------------------
Total Dipole Moment    :      0.320878543       0.801545816       0.249890024
                        -----------------------------------------
Magnitude (a.u.)       :      0.898823541
Magnitude (Debye)      :      2.284627878



--------------------
Rotational spectrum 
--------------------
 
Rotational constants in cm-1:             0.016394             0.006256             0.005009 
Rotational constants in MHz :           491.493255           187.537701           150.170242 

Dipole components along the rotational axes: 
x,y,z [a.u.] :     0.386472     0.810596     0.038166 
x,y,z [Debye]:     0.982335     2.060372     0.097011 

 

Dipole moment calculation done in   0.1 sec 

Maximum memory used throughout the entire PROP-calculation: 71.1 MB
[ga01:3774479] 27 more processes have sent help message help-mpi-btl-openib.txt / error in device init
[ga01:3774479] Set MCA parameter "orte_base_help_aggregate" to 0 to see all help / error messages
--------------------------------------------------------------------------
WARNING: There was an error initializing an OpenFabrics device.

  Local host:   ga01
  Local device: mlx5_0
--------------------------------------------------------------------------
[ga01:3774596] 27 more processes have sent help message help-mpi-btl-openib.txt / error in device init
[ga01:3774596] Set MCA parameter "orte_base_help_aggregate" to 0 to see all help / error messages

--------------------------------
SUGGESTED CITATIONS FOR THIS RUN
--------------------------------

Below you find a list of papers that are relevant to this ORCA run
We neither can nor want to force you to cite these papers, but we appreciate if you do
You receive ORCA, which is the product of decades of hard work by many enthusiastic individuals, for free
The only thing we kindly ask in return is that you cite our papers,
We deeply appreciate it, if you show your appreciation for ORCA by not just citing the generic ORCA reference.

Please note that relegating all ORCA citations to the supporting information does *not* help us.
SI sections are not indexed - citations you put there will not count into any citation statistics
But we need these citations in order to attract the funding resources that allow us to do what we are doing

Therefore, if you are a happy ORCA user, please consider citing a few of the papers listed below in the main body of your paper

In addition to the list printed below, the program has created the file honokiol_2_SP.bibtex that contains the list in bibtex format
You can import this file easily into all common literature databanks and citation aid programs


List of essential papers. We consider these as the minimum necessary citations

  1. Neese,F.
     Software update: the ORCA program system, version 5.0
     WIRES Comput. Molec. Sci., 2022 12(1)e1606
     doi.org/10.1002/wcms.1606

List of papers to cite with high priority. The work reported in these papers was absolutely
necessary for this run to complete.
Our perspective: the developers of density functionals and basis sets usually get cited in chemistry papers
Good! But without the algorithms to do something with them, the functionals or basis sets would not do anything.
Hence, in our opinion, the algorithm design and method developments papers are equally worthy of getting cited

  1. Neese,F.
     An improvement of the resolution of the identity approximation for the formation of the Coulomb matrix
     J. Comp. Chem., 2003 24(14)1740-1747
     doi.org/10.1002/jcc.10318
  2. Neese,F.; Wennmohs,F.; Hansen,A.; Becker,U.
     Efficient, approximate and parallel Hartree-Fock and hybrid DFT calculations. A 'chain-of-spheres' algorithm for the Hartree-Fock exchange
     Chem. Phys., 2009 356(1-3)98-109
     doi.org/10.1016/j.chemphys.2008.10.036
  3. Helmich-Paris,B.; de Souza,B.; Neese,F.; Izsák,R.
     An improved chain of spheres for exchange algorithm
     J. Chem. Phys., 2021 155 104109
     doi.org/doi: 10.1063/5.0058766.
  4. Neese,F.
     The SHARK Integral Generation and Digestion System
     J. Comp. Chem., 2022  1-16
     doi.org/10.1002/jcc.26942
  5. Grimme,S.; Antony,J.; Ehrlich,S.; Krieg,H.
     A consistent and accurate ab initio parametrization of density functional dispersion correction (DFT-D) for the 94 elements H-Pu
     J. Chem. Phys., 2010 132 154104
     doi.org/10.1063/1.3382344

List of suggested additional citations. These are papers that are important in the 'surrounding' of 
of this run, or papers that preceded the highly important papers. If you like your results we are grateful for a citation.

  1. Izsak,R.; Neese,F.
     An overlap fitted chain of spheres exchange method
     J. Chem. Phys., 2011 135 144105
     doi.org/10.1063/1.3646921
  2. Izsak,R.; Hansen,A.; Neese,F.
     The resolution of identity and chain of spheres approximations for the LPNO-CCSD singles Fock term
     Molec. Phys., 2012 110 2413-2417
     doi.org/10.1080/00268976.2012.687466
  3. Neese,F.
     The ORCA program system
     WIRES Comput. Molec. Sci., 2012 2(1)73-78
     doi.org/10.1002/wcms.81
  4. Izsak,R.; Neese,F.; Klopper,W.
     Robust fitting techniques in the chain of spheres approximation to the Fock exchange: The role of the complementary space
     J. Chem. Phys., 2013 139 
     doi.org/10.1063/1.4819264
  5. Neese,F.
     Software update: the ORCA program system, version 4.0
     WIRES Comput. Molec. Sci., 2018 8(1)1-6
     doi.org/10.1002/wcms.1327
  6. Neese,F.; Wennmohs,F.; Becker,U.; Riplinger,C.
     The ORCA quantum chemistry program package
     J. Chem. Phys., 2020 152 Art. No. L224108
     doi.org/10.1063/5.0004608

List of optional additional citations

  1. Neese,F.
     Approximate second-order SCF convergence for spin unrestricted wavefunctions
     Chem. Phys. Lett., 2000 325(1-3)93-98
     doi.org/10.1016/s0009-2614(00)00662-x

Timings for individual modules:

Sum of individual times          ...       57.604 sec (=   0.960 min)
Startup calculation              ...        3.492 sec (=   0.058 min)   6.1 %
SCF iterations                   ...       52.947 sec (=   0.882 min)  91.9 %
Property calculations            ...        1.165 sec (=   0.019 min)   2.0 %
                             ****ORCA TERMINATED NORMALLY****
TOTAL RUN TIME: 0 days 0 hours 0 minutes 58 seconds 718 msec
