
                                 *****************
                                 * O   R   C   A *
                                 *****************

                                            #,                                       
                                            ###                                      
                                            ####                                     
                                            #####                                    
                                            ######                                   
                                           ########,                                 
                                     ,,################,,,,,                         
                               ,,#################################,,                 
                          ,,##########################################,,             
                       ,#########################################, ''#####,          
                    ,#############################################,,   '####,        
                  ,##################################################,,,,####,       
                ,###########''''           ''''###############################       
              ,#####''   ,,,,##########,,,,          '''####'''          '####       
            ,##' ,,,,###########################,,,                        '##       
           ' ,,###''''                  '''############,,,                           
         ,,##''                                '''############,,,,        ,,,,,,###''
      ,#''                                            '''#######################'''  
     '                                                          ''''####''''         
             ,#######,   #######,   ,#######,      ##                                
            ,#'     '#,  ##    ##  ,#'     '#,    #''#        ,####,   ,####,        
            ##       ##  ##   ,#'  ##            #'  '#       #'       #'  '#        
            ##       ##  #######   ##           ,######,      #####,   #    #        
            '#,     ,#'  ##    ##  '#,     ,#' ,#      #,     #,   #   #,  ,#        
             '#######'   ##     ##  '#######'  #'      '#     '####' # '####'        



                #########################################################
                #                        -***-                          #
                #          Department of theory and spectroscopy        #
                #                                                       #
                #                      Frank Neese                      #
                #                                                       #
                #     Directorship, Architecture, Infrastructure        #
                #                    SHARK, DRIVERS                     #
                #        Core code/Algorithms in most modules           #
                #                                                       #
                #        Max Planck Institute fuer Kohlenforschung      #
                #                Kaiser Wilhelm Platz 1                 #
                #                 D-45470 Muelheim/Ruhr                 #
                #                      Germany                          #
                #                                                       #
                #                  All rights reserved                  #
                #                        -***-                          #
                #########################################################


                         Program Version 6.0.1  -  RELEASE   -


 With contributions from (in alphabetic order):
[Max-Planck-Institut fuer Kohlenforschung]                               
  Daniel Aravena         : Magnetic Suceptibility                        
  Michael Atanasov       : Ab Initio Ligand Field Theory (pilot matlab implementation)
  Alexander A. Auer      : GIAO ZORA, VPT2 properties, NMR spectrum      
  Ute Becker             : All parallelization in ORCA, NUMFREQ, NUMCALC 
  Giovanni Bistoni       : ED, misc. LED, open-shell LED, HFLD           
  Martin Brehm           : Molecular dynamics                            
  Dmytro Bykov           : pre 5.0 version of the SCF Hessian            
  Marcos Casanova-Páez   : Triplet and SCS-CIS(D). UHF-(DLPNO)-IP/EA/STEOM-CCSD. UHF-CVS-IP/STEOM-CCSD   
  Vijay G. Chilkuri      : MRCI spin determinant printing, contributions to CSF-ICE 
  Pauline Colinet        : FMM embedding                                 
  Dipayan Datta          : RHF DLPNO-CCSD density                        
  Achintya Kumar Dutta   : EOM-CC, STEOM-CC                              
  Nicolas Foglia         : Exact transition moments, OPA infrastructure, MCD improvements    
  Dmitry Ganyushin       : Spin-Orbit,Spin-Spin,Magnetic field MRCI      
  Miquel Garcia-Rates    : C-PCM and meta-GGA Hessian, CCSD/C-PCM, Gaussian charge scheme 
  Tiago L. C. Gouveia    : GS-ROHF, GS-ROCIS                             
  Yang Guo               : DLPNO-NEVPT2, F12-NEVPT2, CIM, IAO-localization        
  Andreas Hansen         : Spin unrestricted coupled pair/coupled cluster methods 
  Ingolf Harden          : AUTO-CI MPn and infrastructure                
  Benjamin Helmich-Paris : MC-RPA, TRAH-(SCF,CASSCF), AVAS, COSX integrals, SCF dyn. polar. 
  Lee Huntington         : MR-EOM, pCC                                   
  Robert Izsak           : Overlap fitted RIJCOSX, COSX-SCS-MP3, EOM     
  Riya Kayal             : Wick's Theorem for AUTO-CI, AUTO-CI UHF-CCSDT 
  Emily Kempfer          : AUTO-CI, RHF CISDT and CCSDT                  
  Christian Kollmar      : KDIIS, OOCD, Brueckner-CCSD(T), CCSD density, CASPT2, CASPT2-K, improved NEVPT2 
  Axel Koslowski         : Symmetry handling                             
  Simone Kossmann        : meta-GGA functionals, TD-DFT gradient, OOMP2, (MP2 Hessian; deprecated post 5.0) 
  Lucas Lang             : DCDCAS                                        
  Marvin Lechner         : AUTO-CI (C++ implementation), FIC-MRCC        
  Spencer Leger          : CASSCF response                               
  Dagmar Lenk            : GEPOL surface, SMD, ORCA-2-JSON               
  Dimitrios Liakos       : Extrapolation schemes; Compound Job, initial MDCI parallelization 
  Dimitrios Manganas     : Further ROCIS development; embedding schemes. LFT, Crystal Embedding 
  Dimitrios Pantazis     : SARC Basis sets                               
  Anastasios Papadopoulos: AUTO-CI, single reference methods and gradients 
  Taras Petrenko         : pre 6.0 DFT Hessian and TD-DFT gradient, (ASA, deprecated), ECA, 1-Electron XAS/XES, NRVS 
  Peter Pinski           : DLPNO-MP2, DLPNO-MP2 Gradient                 
  Christoph Reimann      : Effective Core Potentials                     
  Marius Retegan         : Local ZFS, SOC                                
  Christoph Riplinger    : Optimizer, TS searches, QM/MM, DLPNO-CCSD(T), (RO)-DLPNO pert. Triples 
  Michael Roemelt        : Original ROCIS implementation                 
  Masaaki Saitow         : Open-shell DLPNO-CCSD energy and density      
  Barbara Sandhoefer     : DKH picture change effects                    
  Kantharuban Sivalingam : CASSCF convergence/infrastructure, NEVPT2 and variants, FIC-MRCI 
  Bernardo de Souza      : ESD, SOC TD-DFT                               
  Georgi L. Stoychev     : AutoAux, RI-MP2 NMR, DLPNO-MP2 response, X2C  
  Van Anh Tran           : RI-MP2 g-tensors                              
  Willem Van den Heuvel  : Paramagnetic NMR                              
  Zikuan Wang            : NOTCH, Electric field optimization            
  Frank Wennmohs         : Technical directorship and infrastructure     
  Hang Xu                : AUTO-CI-Response properties                   
                                                                         
[FACCTs GmbH]                                                            
  Markus Bursch, Miquel Garcia-Rates, Christoph Riplinger, Bernardo de Souza, Georgi L. Stoychev 
                                                                 
  APM, Basis sets (HGBS, AHGBS, def-TZVP (Ac-Lr), def2-XVPD (La-Lu)), CI-OPT, improved COSX, DLPNO-Multilevel,           
  DOCKER, DRACO, updates on ESD, GOAT, IRC, LR-CPCM, MBIS, meta-GGA TD-DFT gradient, ML-optimized integration grids, 
  MM, NACMEs, nearIR, NEB, NEB-TS, NL-DFT gradient (VV10), 2- and 3-layer-ONIOM, interface openCOSMO-RS, QMMM,   
  Crystal-QMMM, SF, symmetry and pop. for TD-DFT, r2SCAN hybrids, SOLVATOR                                   
                                                                         
[Other institutions]                                                     
  V. Asgeirsson          : NEB                                           
  Christoph Bannwarth    : sTDA-DFT, sTD-DFT, PBEh-3c, B97-3c, D3        
  Sebastian Ehlert       : rSCAN, r2SCAN, r2SCAN-3c, D4, dhf basis sets  
  Marvin Friede          : D4 for Fr, Ra, Ac-Lr                          
  Lars Goerigk           : TD-DFT with DH, B97 family of functionals     
  Stefan Grimme          : VdW corrections, initial TS optimization, DFT functionals, gCP, sTDA/sTD-DF 
  Waldemar Hujo          : DFT-NL                                        
  H. Jonsson             : NEB                                           
  Holger Kruse           : gCP                                           
  Marcel Mueller         : wB97X-3c, vDZP basis set                      
  Hagen Neugebauer       : wr2SCAN                                       
  Tobias Risthaus        : range-separated hybrid DFT                    
  Lukas Wittmann         : regularized MP2, r2SCAN double-hybrids, wr2SCAN        
                                                                         
We gratefully acknowledge several colleagues who have allowed us to      
interface, adapt or use parts of their codes:                            
  Ed Valeev, F. Pavosevic, A. Kumar             : LibInt (2-el integral package), F12 methods 
  Garnet Chan, S. Sharma, J. Yang, R. Olivares  : DMRG                   
  Ulf Ekstrom                                   : XCFun DFT Library      
  Mihaly Kallay                                 : mrcc  (arbitrary order and MRCC methods)
  Frank Weinhold                                : gennbo (NPA and NBO analysis)           
  Simon Mueller                                 : openCOSMO-RS                            
  Christopher J. Cramer and Donald G. Truhlar   : smd solvation model                     
  S Lehtola, MJT Oliveira, MAL Marques          : LibXC Library                           
  Liviu Ungur et al                             : ANISO software                          


 Your calculation uses the libint2 library for the computation of 2-el integrals
 For citations please refer to: http://libint.valeyev.net

 Your ORCA version has been built with support for libXC version: 6.2.2
 For citations please refer to: https://libxc.gitlab.io

 This ORCA versions uses:
   CBLAS   interface :  Fast vector & matrix operations
   LAPACKE interface :  Fast linear algebra routines
   SCALAPACK package :  Parallel linear algebra routines
   Shared memory     :  Shared parallel matrices
   BLAS/LAPACK       :  OpenBLAS 0.3.27  USE64BITINT DYNAMIC_ARCH NO_AFFINITY SkylakeX SINGLE_THREADED
        Core in use  :  SkylakeX
   Copyright (c) 2011-2014, The OpenBLAS Project


NOTE: MaxCore=5000 MB was set to SCF,MP2,MDCI,CIPSI,MRCI and CIS
      => If you want to overwrite this, your respective input block should be placed after the MaxCore statement
Warning: RI is on but no J-basis has been assigned. Assigning Def2/J (nothing to worry about!)
================================================================================

----- Orbital basis set information -----
Your calculation utilizes the basis: def2-SVP
   F. Weigend and R. Ahlrichs, Phys. Chem. Chem. Phys. 7, 3297 (2005).

----- AuxJ basis set information -----
Your calculation utilizes the auxiliary basis: def2/J
   F. Weigend, Phys. Chem. Chem. Phys. 8, 1057 (2006).

================================================================================
                                        WARNINGS
                       Please study these warnings very carefully!
================================================================================


================================================================================
                                       INPUT FILE
================================================================================
NAME = 4nitroaniline_water_2_OPT.inp
|  1> ! B3LYP def2-SVP SP TightSCF ALLPOP KEEPDENS 
|  2> 
|  3> %maxcore 5000
|  4> 
|  5> %pal
|  6> nprocs 20
|  7> end
|  8> 
|  9> * xyz 0 1
| 10>   O           2.64276363203394     -0.36922886813941      1.36897212589755
| 11>   O           2.71556354576100     -0.26564936271740     -0.79361452746234
| 12>   N           2.14023461264676     -0.14025155988384      0.27805691078743
| 13>   N          -3.20696122458547      1.65604073672937      0.18449779788922
| 14>   C           0.74804487449118      0.31645601812729      0.25295466021850
| 15>   C          -1.90582775047450      1.18030004721936      0.20518053929643
| 16>   C           0.05444704690148      0.46944984763939      1.45572280954139
| 17>   C           0.13696174146160      0.58825649988408     -0.97347227918619
| 18>   C          -1.26545771510373      0.89911930409019      1.43037845046782
| 19>   C          -1.18298993656182      1.01819298334316     -0.99537127884757
| 20>   H           0.56323373134737      0.24577329987281      2.39282270375262
| 21>   H           0.70888279604556      0.45525942531379     -1.89122266226497
| 22>   H          -1.81533860404831      1.02315117785936      2.36666997696382
| 23>   H          -1.66732008775231      1.23694405067902     -1.95033667535675
| 24>   H          -3.77666105079663      1.47793567837986      1.00576210993153
| 25>   H          -3.72193946782008      1.55608456393310     -0.68450536760096
| 26>   O          -4.25764196823015      4.40021123706916      0.47828364099294
| 27>   H          -3.66213047575637      3.64128597630219      0.35535325728113
| 28>   H          -3.66035667415949      5.15920666159849      0.50727112439841
| 29> *
| 30> 
| 31>                          ****END OF INPUT****
================================================================================

                       ****************************
                       * Single Point Calculation *
                       ****************************

---------------------------------
CARTESIAN COORDINATES (ANGSTROEM)
---------------------------------
  O      2.642764   -0.369229    1.368972
  O      2.715564   -0.265649   -0.793615
  N      2.140235   -0.140252    0.278057
  N     -3.206961    1.656041    0.184498
  C      0.748045    0.316456    0.252955
  C     -1.905828    1.180300    0.205181
  C      0.054447    0.469450    1.455723
  C      0.136962    0.588256   -0.973472
  C     -1.265458    0.899119    1.430378
  C     -1.182990    1.018193   -0.995371
  H      0.563234    0.245773    2.392823
  H      0.708883    0.455259   -1.891223
  H     -1.815339    1.023151    2.366670
  H     -1.667320    1.236944   -1.950337
  H     -3.776661    1.477936    1.005762
  H     -3.721939    1.556085   -0.684505
  O     -4.257642    4.400211    0.478284
  H     -3.662130    3.641286    0.355353
  H     -3.660357    5.159207    0.507271

----------------------------
CARTESIAN COORDINATES (A.U.)
----------------------------
  NO LB      ZA    FRAG     MASS         X           Y           Z
   0 O     8.0000    0    15.999    4.994100   -0.697741    2.586982
   1 O     8.0000    0    15.999    5.131671   -0.502005   -1.499714
   2 N     7.0000    0    14.007    4.044457   -0.265037    0.525451
   3 N     7.0000    0    14.007   -6.060278    3.129463    0.348650
   4 C     6.0000    0    12.011    1.413600    0.598015    0.478015
   5 C     6.0000    0    12.011   -3.601493    2.230444    0.387735
   6 C     6.0000    0    12.011    0.102890    0.887132    2.750917
   7 C     6.0000    0    12.011    0.258820    1.111644   -1.839596
   8 C     6.0000    0    12.011   -2.391369    1.699089    2.703024
   9 C     6.0000    0    12.011   -2.235527    1.924106   -1.880979
  10 H     1.0000    0     1.008    1.064358    0.464444    4.521780
  11 H     1.0000    0     1.008    1.339594    0.860316   -3.573893
  12 H     1.0000    0     1.008   -3.430493    1.933476    4.472358
  13 H     1.0000    0     1.008   -3.150778    2.337485   -3.685602
  14 H     1.0000    0     1.008   -7.136855    2.792894    1.900615
  15 H     1.0000    0     1.008   -7.033446    2.940574   -1.293528
  16 O     8.0000    0    15.999   -8.045777    8.315194    0.903825
  17 H     1.0000    0     1.008   -6.920424    6.881033    0.671520
  18 H     1.0000    0     1.008   -6.917072    9.749488    0.958604

--------------------------------
INTERNAL COORDINATES (ANGSTROEM)
--------------------------------
 O      0   0   0     0.000000000000     0.00000000     0.00000000
 O      1   0   0     2.166289356174     0.00000000     0.00000000
 N      1   2   0     1.222727291583    27.64792730     0.00000000
 N      3   1   2     5.641624114047   117.64314576   180.41735377
 C      3   1   2     1.465402402694   117.65225319   179.95698171
 C      4   3   1     1.385534300153     1.51816166   269.44641548
 C      5   3   1     1.396830798390   119.41480320   359.88783413
 C      5   3   1     1.396932759675   119.42407896   180.03145544
 C      7   5   3     1.388310757398   119.35790943   180.15365571
 C      8   5   3     1.388379407191   119.33966866   179.86693528
 H      7   5   3     1.089518838764   119.09390433     0.00000000
 H      8   5   3     1.089517177543   119.08793740     0.00000000
 H      9   7   5     1.092883671909   119.85718117   180.09794514
 H     10   8   5     1.092879972066   119.80782124   179.75044730
 H      4   3   1     1.015260741893   117.55374474   340.11829654
 H      4   3   1     1.015066662401   117.62619264   199.73867484
 O      4   3   1     2.953085146353   129.15700775    84.86482814
 H     17   4   3     0.972477952623    17.12902672    12.04527458
 H     17   4   3     0.966262930658   120.86268479     7.31791287

---------------------------
INTERNAL COORDINATES (A.U.)
---------------------------
 O      0   0   0     0.000000000000     0.00000000     0.00000000
 O      1   0   0     4.093693609997     0.00000000     0.00000000
 N      1   2   0     2.310619717562    27.64792730     0.00000000
 N      3   1   2    10.661124526074   117.64314576   180.41735377
 C      3   1   2     2.769209217082   117.65225319   179.95698171
 C      4   3   1     2.618280376443     1.51816166   269.44641548
 C      5   3   1     2.639627664384   119.41480320   359.88783413
 C      5   3   1     2.639820343289   119.42407896   180.03145544
 C      7   5   3     2.623527120259   119.35790943   180.15365571
 C      8   5   3     2.623656849567   119.33966866   179.86693528
 H      7   5   3     2.058892223011   119.09390433     0.00000000
 H      8   5   3     2.058889083760   119.08793740     0.00000000
 H      9   7   5     2.065250836142   119.85718117   180.09794514
 H     10   8   5     2.065243844452   119.80782124   179.75044730
 H      4   3   1     1.918564756699   117.55374474   340.11829654
 H      4   3   1     1.918197999611   117.62619264   199.73867484
 O      4   3   1     5.580522176757   129.15700775    84.86482814
 H     17   4   3     1.837717001734    17.12902672    12.04527458
 H     17   4   3     1.825972312304   120.86268479     7.31791287

---------------------
BASIS SET INFORMATION
---------------------
There are 4 groups of distinct atoms

 Group   1 Type O   : 7s4p1d contracted to 3s2p1d pattern {511/31/1}
 Group   2 Type N   : 7s4p1d contracted to 3s2p1d pattern {511/31/1}
 Group   3 Type C   : 7s4p1d contracted to 3s2p1d pattern {511/31/1}
 Group   4 Type H   : 4s1p contracted to 2s1p pattern {31/1}

Atom   0O    basis set group =>   1
Atom   1O    basis set group =>   1
Atom   2N    basis set group =>   2
Atom   3N    basis set group =>   2
Atom   4C    basis set group =>   3
Atom   5C    basis set group =>   3
Atom   6C    basis set group =>   3
Atom   7C    basis set group =>   3
Atom   8C    basis set group =>   3
Atom   9C    basis set group =>   3
Atom  10H    basis set group =>   4
Atom  11H    basis set group =>   4
Atom  12H    basis set group =>   4
Atom  13H    basis set group =>   4
Atom  14H    basis set group =>   4
Atom  15H    basis set group =>   4
Atom  16O    basis set group =>   1
Atom  17H    basis set group =>   4
Atom  18H    basis set group =>   4
---------------------------------
AUXILIARY/J BASIS SET INFORMATION
---------------------------------
There are 4 groups of distinct atoms

 Group   1 Type O   : 12s5p4d2f1g contracted to 6s4p3d1f1g pattern {711111/2111/211/2/1}
 Group   2 Type N   : 12s5p4d2f1g contracted to 6s4p3d1f1g pattern {711111/2111/211/2/1}
 Group   3 Type C   : 12s5p4d2f1g contracted to 6s4p3d1f1g pattern {711111/2111/211/2/1}
 Group   4 Type H   : 5s2p1d contracted to 3s1p1d pattern {311/2/1}

Atom   0O    basis set group =>   1
Atom   1O    basis set group =>   1
Atom   2N    basis set group =>   2
Atom   3N    basis set group =>   2
Atom   4C    basis set group =>   3
Atom   5C    basis set group =>   3
Atom   6C    basis set group =>   3
Atom   7C    basis set group =>   3
Atom   8C    basis set group =>   3
Atom   9C    basis set group =>   3
Atom  10H    basis set group =>   4
Atom  11H    basis set group =>   4
Atom  12H    basis set group =>   4
Atom  13H    basis set group =>   4
Atom  14H    basis set group =>   4
Atom  15H    basis set group =>   4
Atom  16O    basis set group =>   1
Atom  17H    basis set group =>   4
Atom  18H    basis set group =>   4


           ************************************************************
           *        Program running with 20 parallel MPI-processes    *
           *              working on a common directory               *
           ************************************************************
------------------------------------------------------------------------------
                             ORCA STARTUP CALCULATIONS
                           -- RI-GTO INTEGRALS CHOSEN --
------------------------------------------------------------------------------
------------------------------------------------------------------------------
                   ___                                                        
                  /   \      - P O W E R E D   B Y -                         
                 /     \                                                     
                 |  |  |   _    _      __       _____    __    __             
                 |  |  |  | |  | |    /  \     |  _  \  |  |  /  |          
                  \  \/   | |  | |   /    \    | | | |  |  | /  /          
                 / \  \   | |__| |  /  /\  \   | |_| |  |  |/  /          
                |  |  |   |  __  | /  /__\  \  |    /   |      \           
                |  |  |   | |  | | |   __   |  |    \   |  |\   \          
                \     /   | |  | | |  |  |  |  | |\  \  |  | \   \       
                 \___/    |_|  |_| |__|  |__|  |_| \__\ |__|  \__/        
                                                                              
                      - O R C A' S   B I G   F R I E N D -                    
                                      &                                       
                       - I N T E G R A L  F E E D E R -                       
                                                                              
 v1 FN, 2020, v2 2021, v3 2022-2024                                           
------------------------------------------------------------------------------


----------------------
SHARK INTEGRAL PACKAGE
----------------------

Number of atoms                             ...     19
Number of basis functions                   ...    194
Number of shells                            ...     90
Maximum angular momentum                    ...      2
Integral batch strategy                     ... SHARK/LIBINT Hybrid
RI-J (if used) integral strategy            ... SPLIT-RIJ (Revised 2003 algorithm where possible)
Printlevel                                  ...      1
Contraction scheme used                     ... SEGMENTED contraction
Prescreening option                         ... SCHWARTZ
   Thresh                                   ... 2.500e-11
   Tcut                                     ... 2.500e-12
   Tpresel                                  ... 2.500e-12 
Coulomb Range Separation                    ... NOT USED
Exchange Range Separation                   ... NOT USED
Multipole approximations                    ... NOT USED
Finite Nucleus Model                        ... NOT USED
CABS basis                                  ... NOT available
Auxiliary Coulomb fitting basis             ... AVAILABLE
   # of basis functions in Aux-J            ...    627
   # of shells in Aux-J                     ...    205
   Maximum angular momentum in Aux-J        ...      4
Auxiliary J/K fitting basis                 ... NOT available
Auxiliary Correlation fitting basis         ... NOT available
Auxiliary 'external' fitting basis          ... NOT available

Checking pre-screening integrals            ... done (  0.0 sec) Dimension = 90
Check shell pair data                       ... done (  0.0 sec)
Shell pair information
Shell pair cut-off parameter TPreSel        ...   2.5e-12
Total number of shell pairs                 ...      4095
Shell pairs after pre-screening             ...      3436
Total number of primitive shell pairs       ...     15045
Primitive shell pairs kept                  ...      8790
          la=0 lb=0:   1040 shell pairs
          la=1 lb=0:   1252 shell pairs
          la=1 lb=1:    396 shell pairs
          la=2 lb=0:    432 shell pairs
          la=2 lb=1:    265 shell pairs
          la=2 lb=2:     51 shell pairs

Calculating one electron integrals          ... done (  0.0 sec)
Calculating RI/J V-Matrix + Cholesky decomp.... done (  0.0 sec)
Calculating Nuclear repulsion               ... done (  0.0 sec) ENN=    576.641410890117 Eh

Diagonalization of the overlap matrix:
Smallest eigenvalue                        ... 2.577e-04
Time for diagonalization                   ...    0.004 sec
Threshold for overlap eigenvalues          ... 1.000e-07
Number of eigenvalues below threshold      ... 0
Time for construction of square roots      ...    0.004 sec
Total time needed                          ...    0.012 sec

-------------------
DFT GRID GENERATION
-------------------

General Integration Accuracy     IntAcc      ... 4.388
Radial Grid Type                 RadialGrid  ... OptM3 with GC (2021)
Angular Grid (max. ang.)         AngularGrid ... 4 (Lebedev-302)
Angular grid pruning method      GridPruning ... 4 (adaptive)
Weight generation scheme         WeightScheme... mBecke (2022)
Basis function cutoff            BFCut       ... 1.0000e-11
Integration weight cutoff        WCut        ... 1.0000e-14
Partially contracted basis set               ... off
Rotationally invariant grid construction     ... off
Angular grids for H and He will be reduced by one unit

Total number of grid points                  ...    92221
Total number of batches                      ...     1450
Average number of points per batch           ...       63
Average number of grid points per atom       ...     4854

--------------------
COSX GRID GENERATION
--------------------

GRIDX 1
-------
General Integration Accuracy     IntAcc      ... 3.816
Radial Grid Type                 RadialGrid  ... OptM3 with GC (2021)
Angular Grid (max. ang.)         AngularGrid ... 1 (Lebedev-50)
Angular grid pruning method      GridPruning ... 4 (adaptive)
Weight generation scheme         WeightScheme... mBecke (2022)
Basis function cutoff            BFCut       ... 1.0000e-11
Integration weight cutoff        WCut        ... 1.0000e-14
Partially contracted basis set               ... on
Rotationally invariant grid construction     ... off
Angular grids for H and He will be reduced by one unit

Total number of grid points                  ...    11757
Total number of batches                      ...      102
Average number of points per batch           ...      115
Average number of grid points per atom       ...      619
UseSFitting                                  ... on

GRIDX 2
-------
General Integration Accuracy     IntAcc      ... 4.020
Radial Grid Type                 RadialGrid  ... OptM3 with GC (2021)
Angular Grid (max. ang.)         AngularGrid ... 2 (Lebedev-110)
Angular grid pruning method      GridPruning ... 4 (adaptive)
Weight generation scheme         WeightScheme... mBecke (2022)
Basis function cutoff            BFCut       ... 1.0000e-11
Integration weight cutoff        WCut        ... 1.0000e-14
Partially contracted basis set               ... on
Rotationally invariant grid construction     ... off
Angular grids for H and He will be reduced by one unit

Total number of grid points                  ...    26012
Total number of batches                      ...      210
Average number of points per batch           ...      123
Average number of grid points per atom       ...     1369
UseSFitting                                  ... on

GRIDX 3
-------
General Integration Accuracy     IntAcc      ... 4.338
Radial Grid Type                 RadialGrid  ... OptM3 with GC (2021)
Angular Grid (max. ang.)         AngularGrid ... 3 (Lebedev-194)
Angular grid pruning method      GridPruning ... 4 (adaptive)
Weight generation scheme         WeightScheme... mBecke (2022)
Basis function cutoff            BFCut       ... 1.0000e-11
Integration weight cutoff        WCut        ... 1.0000e-14
Partially contracted basis set               ... on
Rotationally invariant grid construction     ... off
Angular grids for H and He will be reduced by one unit

Total number of grid points                  ...    57120
Total number of batches                      ...      456
Average number of points per batch           ...      125
Average number of grid points per atom       ...     3006
UseSFitting                                  ... on
Initializing property integral containers    ... done (  0.0 sec)

SHARK setup successfully completed in   0.9 seconds

Maximum memory used throughout the entire STARTUP-calculation: 23.4 MB


           ************************************************************
           *        Program running with 20 parallel MPI-processes    *
           *              working on a common directory               *
           ************************************************************
-------------------------------------------------------------------------------
                                 ORCA GUESS
                   Start orbitals & Density for SCF / CASSCF
-------------------------------------------------------------------------------

------------
SCF SETTINGS
------------
Hamiltonian:
 Density Functional     Method          .... DFT(GTOs)
 Exchange Functional    Exchange        .... B88
   X-Alpha parameter    XAlpha          ....  0.666667
   Becke's b parameter  XBeta           ....  0.004200
 Correlation Functional Correlation     .... LYP
 LDA part of GGA corr.  LDAOpt          .... VWN-5
 Gradients option       PostSCFGGA      .... off
 Hybrid DFT is turned on
   Fraction HF Exchange ScalHFX         ....  0.200000
   Scaling of DF-GGA-X  ScalDFX         ....  0.720000
   Scaling of DF-GGA-C  ScalDFC         ....  0.810000
   Scaling of DF-LDA-C  ScalLDAC        ....  1.000000
   Perturbative correction              ....  0.000000
   NL short-range parameter             ....  4.800000
 RI-approximation to the Coulomb term is turned on
   Number of AuxJ basis functions       .... 627
   RIJ-COSX (HFX calculated with COS-X)).... on


General Settings:
 Integral files         IntName         .... 4nitroaniline_water_2_OPT
 Hartree-Fock type      HFTyp           .... RHF
 Total Charge           Charge          ....    0
 Multiplicity           Mult            ....    1
 Number of Electrons    NEL             ....   82
 Basis Dimension        Dim             ....  194
 Nuclear Repulsion      ENuc            ....    576.6414108901 Eh

Convergence Acceleration:
 AO-DIIS                CNVDIIS         .... on
   Start iteration      DIISMaxIt       ....    12
   Startup error        DIISStart       ....  0.200000
   # of expansion vecs  DIISMaxEq       ....     5
   Bias factor          DIISBfac        ....   1.050
   Max. coefficient     DIISMaxC        ....  10.000
 MO-DIIS                CNVKDIIS        .... off
 Trust-Rad. Augm. Hess. CNVTRAH         .... auto
   Auto Start mean grad. ratio tolernc. ....  1.125000
   Auto Start start iteration           ....    50
   Auto Start num. interpolation iter.  ....    10
   Max. Number of Micro iterations      ....    24
   Max. Number of Macro iterations      .... Maxiter - #DIIS iter
   Number of Davidson start vectors     ....     2
   Converg. threshold    (grad. norm)   ....   1.000e-05
   Grad. Scal. Fac. for Micro threshold ....   0.100
   Minimum threshold for Micro iter.    ....   1.000e-02
   NR start threshold (gradient norm)   ....   1.000e-04
   Initial trust radius                 ....   0.400
   Minimum AH scaling param. (alpha)    ....   1.000
   Maximum AH scaling param. (alpha)    .... 1000.000
   Quad. conv. algorithm                .... NR
   White noise on init. David. guess    .... on
   Maximum white noise                  ....   0.010
   Pseudo random numbers                .... off
   Inactive MOs                         .... canonical
   Orbital update algorithm             .... Taylor
   Preconditioner                       .... Diag
   Full preconditioner red. dimension   ....   250
 SOSCF                  CNVSOSCF        .... on
   Start iteration      SOSCFMaxIt      ....   150
   Startup grad/error   SOSCFStart      ....  0.003300
   Hessian update       SOSCFHessUp     .... L-BFGS
 Level Shifting         CNVShift        .... on
   Level shift para.    LevelShift      ....    0.2500
   Turn off err/grad.   ShiftErr        ....    0.0010
 Zerner damping         CNVZerner       .... off
 Static damping         CNVDamp         .... on
   Fraction old density DampFac         ....    0.7000
   Max. Damping (<1)    DampMax         ....    0.9800
   Min. Damping (>=0)   DampMin         ....    0.0000
   Turn off err/grad.   DampErr         ....    0.1000

SCF Procedure:
 Maximum # iterations   MaxIter         ....   125
 SCF integral mode      SCFMode         .... Direct
   Integral package                     .... SHARK and LIBINT hybrid scheme
 Reset frequency        DirectResetFreq ....    20
 Integral Threshold     Thresh          ....  2.500e-11 Eh
 Primitive CutOff       TCut            ....  2.500e-12 Eh

Convergence Tolerance:
 Convergence Check Mode ConvCheckMode   .... Total+1el-Energy
 Convergence forced     ConvForced      .... 0
 Energy Change          TolE            ....  1.000e-08 Eh
 1-El. energy change                    ....  1.000e-05 Eh
 Orbital Gradient       TolG            ....  1.000e-05
 Orbital Rotation angle TolX            ....  1.000e-05
 DIIS Error             TolErr          ....  5.000e-07

------------------------------
INITIAL GUESS: MODEL POTENTIAL
------------------------------
Loading Hartree-Fock densities                     ... done
Calculating cut-offs                               ... done
Initializing the effective Hamiltonian             ... done
Setting up the integral package (SHARK)            ... done
Starting the Coulomb interaction                   ... done (   0.0 sec)
Making the grid                                    ... done (   0.1 sec)
Mapping shells                                     ... done
Starting the XC term evaluation                    ... done (   0.0 sec)
  promolecular density results
     # of electrons  =     82.005786683
     EX              =    -70.963118619
     EC              =     -2.832123818
     EX+EC           =    -73.795242437
Transforming the Hamiltonian                       ... done (   0.0 sec)
Diagonalizing the Hamiltonian                      ... done (   0.0 sec)
Back transforming the eigenvectors                 ... done (   0.0 sec)
Now organizing SCF variables                       ... done
                      ------------------
                      INITIAL GUESS DONE (   0.2 sec)
                      ------------------
             **** ENERGY FILE WAS UPDATED (4nitroaniline_water_2_OPT.en.tmp) ****
Finished Guess after   0.7 sec
Maximum memory used throughout the entire GUESS-calculation: 13.4 MB


           ************************************************************
           *        Program running with 20 parallel MPI-processes    *
           *              working on a common directory               *
           ************************************************************

-------------------------------------------------------------------------------------------
                                      ORCA LEAN-SCF
                              memory conserving SCF solver
-------------------------------------------------------------------------------------------

----------------------------------------D-I-I-S--------------------------------------------
Iteration    Energy (Eh)           Delta-E    RMSDP     MaxDP     DIISErr   Damp  Time(sec)
-------------------------------------------------------------------------------------------
               ***  Starting incremental Fock matrix formation  ***
    1    -567.4447454342048331     0.00e+00  3.97e-03  9.02e-02  3.08e-01  0.700   0.4
    2    -567.6233150551370272    -1.79e-01  2.45e-03  4.97e-02  1.30e-01  0.700   0.3
                               ***Turning on AO-DIIS***
    3    -567.6858546460416619    -6.25e-02  1.06e-03  1.67e-02  3.65e-02  0.700   0.3
    4    -567.7257412148690037    -3.99e-02  1.87e-03  2.88e-02  1.61e-02  0.000   0.3
    5    -567.8152787753263055    -8.95e-02  3.27e-04  6.46e-03  5.69e-03  0.000   0.3
                              *** Initializing SOSCF ***
---------------------------------------S-O-S-C-F--------------------------------------
Iteration    Energy (Eh)           Delta-E    RMSDP     MaxDP     MaxGrad    Time(sec)
--------------------------------------------------------------------------------------
    6    -567.8157357692832647    -4.57e-04  1.09e-04  2.90e-03  1.60e-03     0.3
               *** Restarting incremental Fock matrix formation ***
    7    -567.8156740781378176     6.17e-05  7.51e-05  1.46e-03  3.78e-04     0.4
    8    -567.8156733421944864     7.36e-07  3.27e-05  8.01e-04  5.36e-04     0.3
    9    -567.8156786242275302    -5.28e-06  1.63e-05  2.44e-04  9.06e-05     0.4
   10    -567.8156785667622444     5.75e-08  7.50e-06  1.71e-04  1.16e-04     0.4
   11    -567.8156788828732715    -3.16e-07  4.15e-06  1.47e-04  4.74e-05     0.3
   12    -567.8156788808068995     2.07e-09  2.65e-06  6.76e-05  4.92e-05     0.3
                 **** Energy Check signals convergence ****

               *****************************************************
               *                     SUCCESS                       *
               *           SCF CONVERGED AFTER  12 CYCLES          *
               *****************************************************

Recomputing exchange energy using gridx3       ... done (    0.434 sec)
Old exchange energy                            :    -14.334424059 Eh
New exchange energy                            :    -14.334364281 Eh
Exchange energy change after final integration :      0.000059778 Eh
Total energy after final integration           :   -567.815619103 Eh
             **** ENERGY FILE WAS UPDATED (4nitroaniline_water_2_OPT.en.tmp) ****

----------------
TOTAL SCF ENERGY
----------------

Total Energy       :       -567.81561910251651 Eh          -15451.04851 eV

Components:
Nuclear Repulsion  :        576.64141089011719 Eh           15691.21052 eV
Electronic Energy  :      -1144.45708977092409 Eh          -31142.26065 eV
One Electron Energy:      -1916.71299801765622 Eh          -52156.41226 eV
Two Electron Energy:        772.25590824673202 Eh           21014.15160 eV

Virial components:
Potential Energy   :      -1130.95427169307732 Eh          -30774.83029 eV
Kinetic Energy     :        563.13865259056081 Eh           15323.78178 eV
Virial Ratio       :          2.00830517758005

DFT components:
N(Alpha)           :       40.999979577666 electrons
N(Beta)            :       40.999979577666 electrons
N(Total)           :       81.999959155332 electrons
E(X)               :      -57.078313621533 Eh       
E(C)               :       -3.339089948596 Eh       
E(XC)              :      -60.417403570129 Eh       

---------------
SCF CONVERGENCE
---------------

  Last Energy change         ...   -2.0664e-09  Tolerance :   1.0000e-08
  Last MAX-Density change    ...    6.7644e-05  Tolerance :   1.0000e-07
  Last RMS-Density change    ...    2.6480e-06  Tolerance :   5.0000e-09
  Last DIIS Error            ...    1.6012e-03  Tolerance :   5.0000e-07
  Last Orbital Gradient      ...    4.9184e-05  Tolerance :   1.0000e-05
  Last Orbital Rotation      ...    3.5970e-05  Tolerance :   1.0000e-05


----------------
ORBITAL ENERGIES
----------------

  NO   OCC          E(Eh)            E(eV) 
   0   2.0000     -19.152477      -521.1654 
   1   2.0000     -19.152407      -521.1635 
   2   2.0000     -19.104074      -519.8483 
   3   2.0000     -14.550841      -395.9485 
   4   2.0000     -14.376327      -391.1997 
   5   2.0000     -10.265615      -279.3416 
   6   2.0000     -10.240402      -278.6555 
   7   2.0000     -10.220974      -278.1269 
   8   2.0000     -10.220871      -278.1240 
   9   2.0000     -10.215160      -277.9686 
  10   2.0000     -10.215010      -277.9645 
  11   2.0000      -1.212921       -33.0052 
  12   2.0000      -1.038551       -28.2604 
  13   2.0000      -0.965790       -26.2805 
  14   2.0000      -0.948751       -25.8168 
  15   2.0000      -0.874870       -23.8064 
  16   2.0000      -0.788759       -21.4632 
  17   2.0000      -0.770534       -20.9673 
  18   2.0000      -0.688650       -18.7391 
  19   2.0000      -0.643599       -17.5132 
  20   2.0000      -0.596935       -16.2434 
  21   2.0000      -0.560416       -15.2497 
  22   2.0000      -0.548978       -14.9385 
  23   2.0000      -0.535038       -14.5591 
  24   2.0000      -0.532809       -14.4985 
  25   2.0000      -0.501551       -13.6479 
  26   2.0000      -0.499063       -13.5802 
  27   2.0000      -0.467643       -12.7252 
  28   2.0000      -0.462657       -12.5895 
  29   2.0000      -0.451003       -12.2724 
  30   2.0000      -0.431049       -11.7294 
  31   2.0000      -0.416688       -11.3387 
  32   2.0000      -0.374982       -10.2038 
  33   2.0000      -0.361401        -9.8342 
  34   2.0000      -0.343912        -9.3583 
  35   2.0000      -0.305058        -8.3010 
  36   2.0000      -0.303116        -8.2482 
  37   2.0000      -0.285886        -7.7794 
  38   2.0000      -0.285048        -7.7565 
  39   2.0000      -0.280209        -7.6249 
  40   2.0000      -0.246127        -6.6975 
  41   0.0000      -0.081195        -2.2094 
  42   0.0000      -0.035726        -0.9721 
  43   0.0000       0.004332         0.1179 
  44   0.0000       0.027971         0.7611 
  45   0.0000       0.059669         1.6237 
  46   0.0000       0.064492         1.7549 
  47   0.0000       0.076938         2.0936 
  48   0.0000       0.112952         3.0736 
  49   0.0000       0.125843         3.4244 
  50   0.0000       0.134559         3.6615 
  51   0.0000       0.149122         4.0578 
*Only the first 10 virtual orbitals were printed.

                    ********************************
                    * MULLIKEN POPULATION ANALYSIS *
                    ********************************

-----------------------
MULLIKEN ATOMIC CHARGES
-----------------------
   0 O :   -0.250130
   1 O :   -0.250302
   2 N :    0.235162
   3 N :   -0.089788
   4 C :    0.168609
   5 C :    0.092597
   6 C :   -0.018173
   7 C :   -0.017923
   8 C :   -0.022589
   9 C :   -0.023749
  10 H :    0.008258
  11 H :    0.008031
  12 H :   -0.022901
  13 H :   -0.024034
  14 H :    0.133680
  15 H :    0.132103
  16 O :   -0.322068
  17 H :    0.115862
  18 H :    0.147357
Sum of atomic charges:    0.0000000

--------------------------------
MULLIKEN REDUCED ORBITAL CHARGES
--------------------------------
  0 O s       :     3.857481  s :     3.857481
      pz      :     1.250622  p :     4.370566
      px      :     1.675496
      py      :     1.444448
      dz2     :     0.007316  d :     0.022083
      dxz     :     0.006502
      dyz     :     0.005528
      dx2y2   :     0.001344
      dxy     :     0.001393

  1 O s       :     3.857455  s :     3.857455
      pz      :     1.271052  p :     4.370770
      px      :     1.637218
      py      :     1.462500
      dz2     :     0.006889  d :     0.022077
      dxz     :     0.007108
      dyz     :     0.004989
      dx2y2   :     0.001479
      dxy     :     0.001611

  2 N s       :     3.293383  s :     3.293383
      pz      :     1.036061  p :     3.355828
      px      :     1.142932
      py      :     1.176834
      dz2     :     0.038237  d :     0.115627
      dxz     :     0.032729
      dyz     :     0.027706
      dx2y2   :     0.008753
      dxy     :     0.008203

  3 N s       :     3.327541  s :     3.327541
      pz      :     1.037700  p :     3.745436
      px      :     1.063685
      py      :     1.644051
      dz2     :     0.002847  d :     0.016810
      dxz     :     0.006318
      dyz     :     0.001172
      dx2y2   :     0.002590
      dxy     :     0.003884

  4 C s       :     2.999617  s :     2.999617
      pz      :     0.864225  p :     2.783924
      px      :     0.840966
      py      :     1.078733
      dz2     :     0.014234  d :     0.047851
      dxz     :     0.011363
      dyz     :     0.007356
      dx2y2   :     0.008261
      dxy     :     0.006637

  5 C s       :     2.971165  s :     2.971165
      pz      :     1.044869  p :     2.875120
      px      :     0.912019
      py      :     0.918233
      dz2     :     0.013252  d :     0.061118
      dxz     :     0.014806
      dyz     :     0.007446
      dx2y2   :     0.012359
      dxy     :     0.013254

  6 C s       :     3.277985  s :     3.277985
      pz      :     0.898524  p :     2.705006
      px      :     0.886496
      py      :     0.919986
      dz2     :     0.007503  d :     0.035182
      dxz     :     0.011570
      dyz     :     0.004700
      dx2y2   :     0.005281
      dxy     :     0.006129

  7 C s       :     3.277632  s :     3.277632
      pz      :     0.904943  p :     2.705113
      px      :     0.873787
      py      :     0.926384
      dz2     :     0.007591  d :     0.035178
      dxz     :     0.011567
      dyz     :     0.004787
      dx2y2   :     0.005424
      dxy     :     0.005809

  8 C s       :     3.230776  s :     3.230776
      pz      :     0.837045  p :     2.759354
      px      :     0.882219
      py      :     1.040090
      dz2     :     0.007538  d :     0.032459
      dxz     :     0.011601
      dyz     :     0.003876
      dx2y2   :     0.004761
      dxy     :     0.004684

  9 C s       :     3.230843  s :     3.230843
      pz      :     0.832722  p :     2.760446
      px      :     0.890490
      py      :     1.037234
      dz2     :     0.007521  d :     0.032461
      dxz     :     0.011559
      dyz     :     0.003812
      dx2y2   :     0.004727
      dxy     :     0.004841

 10 H s       :     0.968070  s :     0.968070
      pz      :     0.012158  p :     0.023673
      px      :     0.006861
      py      :     0.004654

 11 H s       :     0.968295  s :     0.968295
      pz      :     0.011759  p :     0.023674
      px      :     0.007614
      py      :     0.004301

 12 H s       :     0.999836  s :     0.999836
      pz      :     0.011912  p :     0.023065
      px      :     0.006119
      py      :     0.005034

 13 H s       :     1.000972  s :     1.000972
      pz      :     0.012223  p :     0.023063
      px      :     0.005481
      py      :     0.005359

 14 H s       :     0.821561  s :     0.821561
      pz      :     0.019379  p :     0.044759
      px      :     0.012808
      py      :     0.012572

 15 H s       :     0.823080  s :     0.823080
      pz      :     0.020394  p :     0.044817
      px      :     0.011842
      py      :     0.012581

 16 O s       :     3.676929  s :     3.676929
      pz      :     1.946343  p :     4.634740
      px      :     1.515510
      py      :     1.172887
      dz2     :     0.001770  d :     0.010399
      dxz     :     0.001214
      dyz     :     0.000067
      dx2y2   :     0.000356
      dxy     :     0.006993

 17 H s       :     0.811467  s :     0.811467
      pz      :     0.019143  p :     0.072671
      px      :     0.022184
      py      :     0.031344

 18 H s       :     0.782577  s :     0.782577
      pz      :     0.019415  p :     0.070066
      px      :     0.022084
      py      :     0.028567



                     *******************************
                     * LOEWDIN POPULATION ANALYSIS *
                     *******************************

----------------------
LOEWDIN ATOMIC CHARGES
----------------------
   0 O :   -0.215171
   1 O :   -0.215380
   2 N :    0.276642
   3 N :    0.004397
   4 C :   -0.051339
   5 C :    0.037683
   6 C :    0.010847
   7 C :    0.010757
   8 C :   -0.054016
   9 C :   -0.054544
  10 H :    0.042692
  11 H :    0.042607
  12 H :    0.030421
  13 H :    0.029923
  14 H :    0.083492
  15 H :    0.082821
  16 O :   -0.171370
  17 H :    0.037146
  18 H :    0.072392

-------------------------------
LOEWDIN REDUCED ORBITAL CHARGES
-------------------------------
  0 O s       :     3.620218  s :     3.620218
      pz      :     1.389231  p :     4.552550
      px      :     1.704672
      py      :     1.458647
      dz2     :     0.015515  d :     0.042403
      dxz     :     0.014093
      dyz     :     0.008752
      dx2y2   :     0.001969
      dxy     :     0.002074

  1 O s       :     3.620255  s :     3.620255
      pz      :     1.404441  p :     4.552732
      px      :     1.676148
      py      :     1.472142
      dz2     :     0.014353  d :     0.042393
      dxz     :     0.016020
      dyz     :     0.007371
      dx2y2   :     0.002429
      dxy     :     0.002220

  2 N s       :     3.049865  s :     3.049865
      pz      :     1.124043  p :     3.430890
      px      :     1.173407
      py      :     1.133440
      dz2     :     0.088709  d :     0.242602
      dxz     :     0.072063
      dyz     :     0.050377
      dx2y2   :     0.016671
      dxy     :     0.014783

  3 N s       :     3.054568  s :     3.054568
      pz      :     1.153857  p :     3.898085
      px      :     1.146457
      py      :     1.597772
      dz2     :     0.008894  d :     0.042950
      dxz     :     0.018437
      dyz     :     0.001963
      dx2y2   :     0.005640
      dxy     :     0.008017

  4 C s       :     2.859287  s :     2.859287
      pz      :     1.092895  p :     3.070089
      px      :     0.914898
      py      :     1.062296
      dz2     :     0.038330  d :     0.121963
      dxz     :     0.032992
      dyz     :     0.016084
      dx2y2   :     0.019620
      dxy     :     0.014935

  5 C s       :     2.840293  s :     2.840293
      pz      :     1.097947  p :     2.977723
      px      :     0.956163
      py      :     0.923613
      dz2     :     0.035448  d :     0.144300
      dxz     :     0.037706
      dyz     :     0.016149
      dx2y2   :     0.025715
      dxy     :     0.029281

  6 C s       :     2.862697  s :     2.862697
      pz      :     1.051055  p :     3.035144
      px      :     1.048756
      py      :     0.935333
      dz2     :     0.021411  d :     0.091313
      dxz     :     0.032111
      dyz     :     0.010162
      dx2y2   :     0.013468
      dxy     :     0.014161

  7 C s       :     2.862721  s :     2.862721
      pz      :     1.051005  p :     3.035227
      px      :     1.048801
      py      :     0.935421
      dz2     :     0.021677  d :     0.091295
      dxz     :     0.032005
      dyz     :     0.010500
      dx2y2   :     0.013644
      dxy     :     0.013469

  8 C s       :     2.857848  s :     2.857848
      pz      :     1.024519  p :     3.109479
      px      :     1.050268
      py      :     1.034692
      dz2     :     0.021883  d :     0.086689
      dxz     :     0.033140
      dyz     :     0.008497
      dx2y2   :     0.012230
      dxy     :     0.010939

  9 C s       :     2.857827  s :     2.857827
      pz      :     1.024245  p :     3.110013
      px      :     1.050348
      py      :     1.035420
      dz2     :     0.021811  d :     0.086705
      dxz     :     0.033116
      dyz     :     0.008210
      dx2y2   :     0.012341
      dxy     :     0.011227

 10 H s       :     0.885801  s :     0.885801
      pz      :     0.036329  p :     0.071507
      px      :     0.020938
      py      :     0.014240

 11 H s       :     0.885885  s :     0.885885
      pz      :     0.035213  p :     0.071508
      px      :     0.023041
      py      :     0.013255

 12 H s       :     0.901406  s :     0.901406
      pz      :     0.034545  p :     0.068173
      px      :     0.018087
      py      :     0.015542

 13 H s       :     0.901923  s :     0.901923
      pz      :     0.035399  p :     0.068154
      px      :     0.016371
      py      :     0.016383

 14 H s       :     0.794941  s :     0.794941
      pz      :     0.049092  p :     0.121567
      px      :     0.032418
      py      :     0.040057

 15 H s       :     0.795714  s :     0.795714
      pz      :     0.052677  p :     0.121465
      px      :     0.029480
      py      :     0.039308

 16 O s       :     3.435217  s :     3.435217
      pz      :     1.882616  p :     4.717006
      px      :     1.584155
      py      :     1.250236
      dz2     :     0.003875  d :     0.019147
      dxz     :     0.000524
      dyz     :     0.000206
      dx2y2   :     0.000057
      dxy     :     0.014487

 17 H s       :     0.770240  s :     0.770240
      pz      :     0.053535  p :     0.192614
      px      :     0.063816
      py      :     0.075263

 18 H s       :     0.751704  s :     0.751704
      pz      :     0.053277  p :     0.175904
      px      :     0.061693
      py      :     0.060934



                      *****************************
                      * MAYER POPULATION ANALYSIS *
                      *****************************

  NA   - Mulliken gross atomic population
  ZA   - Total nuclear charge
  QA   - Mulliken gross atomic charge
  VA   - Mayer's total valence
  BVA  - Mayer's bonded valence
  FA   - Mayer's free valence

  ATOM       NA         ZA         QA         VA         BVA        FA
  0 O      8.2501     8.0000    -0.2501     1.9550     1.9550    -0.0000
  1 O      8.2503     8.0000    -0.2503     1.9548     1.9548    -0.0000
  2 N      6.7648     7.0000     0.2352     3.9837     3.9837    -0.0000
  3 N      7.0898     7.0000    -0.0898     3.2444     3.2444     0.0000
  4 C      5.8314     6.0000     0.1686     3.7610     3.7610     0.0000
  5 C      5.9074     6.0000     0.0926     3.9754     3.9754     0.0000
  6 C      6.0182     6.0000    -0.0182     3.8524     3.8524     0.0000
  7 C      6.0179     6.0000    -0.0179     3.8533     3.8533     0.0000
  8 C      6.0226     6.0000    -0.0226     3.7738     3.7738     0.0000
  9 C      6.0237     6.0000    -0.0237     3.7738     3.7738     0.0000
 10 H      0.9917     1.0000     0.0083     1.0185     1.0185     0.0000
 11 H      0.9920     1.0000     0.0080     1.0185     1.0185     0.0000
 12 H      1.0229     1.0000    -0.0229     0.9897     0.9897    -0.0000
 13 H      1.0240     1.0000    -0.0240     0.9895     0.9895     0.0000
 14 H      0.8663     1.0000     0.1337     0.9935     0.9935     0.0000
 15 H      0.8679     1.0000     0.1321     0.9934     0.9934     0.0000
 16 O      8.3221     8.0000    -0.3221     1.9923     1.9923     0.0000
 17 H      0.8841     1.0000     0.1159     1.0903     1.0903     0.0000
 18 H      0.8526     1.0000     0.1474     1.0123     1.0123     0.0000

  Mayer bond orders larger than 0.100000
B(  0-O ,  1-O ) :   0.2713 B(  0-O ,  2-N ) :   1.5386 B(  1-O ,  2-N ) :   1.5385 
B(  2-N ,  4-C ) :   0.8778 B(  3-N ,  5-C ) :   1.2009 B(  3-N , 14-H ) :   0.9388 
B(  3-N , 15-H ) :   0.9409 B(  3-N , 17-H ) :   0.1058 B(  4-C ,  6-C ) :   1.3551 
B(  4-C ,  7-C ) :   1.3556 B(  5-C ,  8-C ) :   1.3049 B(  5-C ,  9-C ) :   1.3045 
B(  6-C ,  8-C ) :   1.3779 B(  6-C , 10-H ) :   0.9813 B(  7-C ,  9-C ) :   1.3781 
B(  7-C , 11-H ) :   0.9812 B(  8-C , 12-H ) :   0.9882 B(  9-C , 13-H ) :   0.9882 
B( 16-O , 17-H ) :   0.9689 B( 16-O , 18-H ) :   1.0047 

Environment variable NBOEXE for nbo6.exe or nbo5.exe not set! Skipping NBO-Analysis

-------
TIMINGS
-------

Total SCF time: 0 days 0 hours 0 min 5 sec 

Total time                  ....       5.217 sec
Sum of individual times     ....       5.122 sec  ( 98.2%)

SCF preparation             ....       0.601 sec  ( 11.5%)
Fock matrix formation       ....       4.009 sec  ( 76.9%)
  Startup                   ....       0.065 sec  (  1.6% of F)
  Split-RI-J                ....       0.358 sec  (  8.9% of F)
  Chain of spheres X        ....       2.392 sec  ( 59.7% of F)
  XC integration            ....       1.059 sec  ( 26.4% of F)
    Basis function eval.    ....       0.195 sec  ( 18.4% of XC)
    Density eval.           ....       0.080 sec  (  7.6% of XC)
    XC-Functional eval.     ....       0.052 sec  (  4.9% of XC)
    XC-Potential eval.      ....       0.115 sec  ( 10.9% of XC)
Diagonalization             ....       0.000 sec  (  0.0%)
Density matrix formation    ....       0.141 sec  (  2.7%)
Total Energy calculation    ....       0.051 sec  (  1.0%)
Population analysis         ....       0.019 sec  (  0.4%)
Orbital Transformation      ....       0.029 sec  (  0.5%)
Orbital Orthonormalization  ....       0.000 sec  (  0.0%)
DIIS solution               ....       0.177 sec  (  3.4%)
SOSCF solution              ....       0.095 sec  (  1.8%)
Finished LeanSCF after   5.2 sec

Maximum memory used throughout the entire LEANSCF-calculation: 19.8 MB

-------------------------   --------------------
FINAL SINGLE POINT ENERGY      -567.815619102517
-------------------------   --------------------



           ************************************************************
           *        Program running with 20 parallel MPI-processes    *
           *              working on a common directory               *
           ************************************************************

------------------------------------------------------------------------------
                              ORCA PROPERTY CALCULATIONS
------------------------------------------------------------------------------

GBWName                                 ... 4nitroaniline_water_2_OPT.gbw
Number of atoms                         ...     19
Number of basis functions               ...    194
Max core memory                         ...   5000 MB

Electric properties:
Dipole moment                           ... YES
Quadrupole moment                       ...  NO
Static polarizability (Dipole/Dipole)   ...  NO
Static polarizability (Dipole/Quad.)    ...  NO
Static polarizability (Quad./Quad.)     ...  NO
Static polarizability (Velocity)        ...  NO

Atomic electric properties:
Dipole moment                           ...  NO
Quadrupole moment                       ...  NO
Static polarizability                   ...  NO

Choice of electric origin               ... Center of mass
Position of electric origin             ...    -0.671882     1.816586     0.508007

General magnetic properties:
Magnetizability                         ...  NO

EPR properties:
g-Tensor (aka g-matrix)                 ...  NO
Zero-Field splitting spin-orbit         ...  NO
Zero-field splitting spin-spin          ...  NO
Hyperfine couplings                     ...  NO (   0 nuclei)
Quadrupole couplings                    ...  NO (   0 nuclei)
Contact density                         ...  NO (   0 nuclei)

NMR properties:
Chemical shifts                         ...  NO (   0 nuclei)
Spin-rotation constants                 ...  NO (   0 nuclei)
Spin-spin couplings                     ...  NO (   0 nuclei,    0 pairs)

Choice of magnetic origin               ... GIAO
Position of magnetic origin             ...     0.000000     0.000000     0.000000

Properties with geometric perturbations:
SCF Hessian                             ...  NO
IR spectrum                             ...  NO
VCD spectrum                            ...  NO
X-ray spectroscopy properties:
SCF XES/XAS/RIXS spectra                ...  NO


-------------
DIPOLE MOMENT
-------------

Method             : SCF
Type of density    : Electron Density
Multiplicity       :   1
Irrep              :   0
Energy             :  -567.8156191025165072 Eh
Relativity type    : 
Basis              : AO
                                X                 Y                 Z
Electronic contribution:     11.658531315      -6.451208560      -0.094181580
Nuclear contribution   :    -13.280070489       6.676795481      -0.042531360
                        -----------------------------------------
Total Dipole Moment    :     -1.621539175       0.225586921      -0.136712940
                        -----------------------------------------
Magnitude (a.u.)       :      1.642853975
Magnitude (Debye)      :      4.175802947



--------------------
Rotational spectrum 
--------------------
 
Rotational constants in cm-1:             0.093852             0.014540             0.013615 
Rotational constants in MHz :          2813.612303           435.896466           408.169691 

Dipole components along the rotational axes: 
x,y,z [a.u.] :     1.524005    -0.148770     0.595185 
x,y,z [Debye]:     3.873713    -0.378144     1.512839 

 

Dipole moment calculation done in   0.0 sec 

Maximum memory used throughout the entire PROP-calculation: 8.8 MB

--------------------------------
SUGGESTED CITATIONS FOR THIS RUN
--------------------------------

Below you find a list of papers that are relevant to this ORCA run
We neither can nor want to force you to cite these papers, but we appreciate if you do
You receive ORCA, which is the product of decades of hard work by many enthusiastic individuals, for free
The only thing we kindly ask in return is that you cite our papers,
We deeply appreciate it, if you show your appreciation for ORCA by not just citing the generic ORCA reference.

Please note that relegating all ORCA citations to the supporting information does *not* help us.
SI sections are not indexed - citations you put there will not count into any citation statistics
But we need these citations in order to attract the funding resources that allow us to do what we are doing

Therefore, if you are a happy ORCA user, please consider citing a few of the papers listed below in the main body of your paper

In addition to the list printed below, the program has created the file 4nitroaniline_water_2_OPT.bibtex that contains the list in bibtex format
You can import this file easily into all common literature databanks and citation aid programs


List of essential papers. We consider these as the minimum necessary citations

  1. Neese,F.
     Software update: the ORCA program system, version 5.0
     WIRES Comput. Molec. Sci., 2022 12(1)e1606
     doi.org/10.1002/wcms.1606

List of papers to cite with high priority. The work reported in these papers was absolutely
necessary for this run to complete.
Our perspective: the developers of density functionals and basis sets usually get cited in chemistry papers
Good! But without the algorithms to do something with them, the functionals or basis sets would not do anything.
Hence, in our opinion, the algorithm design and method developments papers are equally worthy of getting cited

  1. Neese,F.
     An improvement of the resolution of the identity approximation for the formation of the Coulomb matrix
     J. Comp. Chem., 2003 24(14)1740-1747
     doi.org/10.1002/jcc.10318
  2. Neese,F.; Wennmohs,F.; Hansen,A.; Becker,U.
     Efficient, approximate and parallel Hartree-Fock and hybrid DFT calculations. A 'chain-of-spheres' algorithm for the Hartree-Fock exchange
     Chem. Phys., 2009 356(1-3)98-109
     doi.org/10.1016/j.chemphys.2008.10.036
  3. Helmich-Paris,B.; de Souza,B.; Neese,F.; Izsák,R.
     An improved chain of spheres for exchange algorithm
     J. Chem. Phys., 2021 155 104109
     doi.org/doi: 10.1063/5.0058766.
  4. Neese,F.
     The SHARK Integral Generation and Digestion System
     J. Comp. Chem., 2022  1-16
     doi.org/10.1002/jcc.26942

List of suggested additional citations. These are papers that are important in the 'surrounding' of 
of this run, or papers that preceded the highly important papers. If you like your results we are grateful for a citation.

  1. Izsak,R.; Neese,F.
     An overlap fitted chain of spheres exchange method
     J. Chem. Phys., 2011 135 144105
     doi.org/10.1063/1.3646921
  2. Izsak,R.; Hansen,A.; Neese,F.
     The resolution of identity and chain of spheres approximations for the LPNO-CCSD singles Fock term
     Molec. Phys., 2012 110 2413-2417
     doi.org/10.1080/00268976.2012.687466
  3. Neese,F.
     The ORCA program system
     WIRES Comput. Molec. Sci., 2012 2(1)73-78
     doi.org/10.1002/wcms.81
  4. Izsak,R.; Neese,F.; Klopper,W.
     Robust fitting techniques in the chain of spheres approximation to the Fock exchange: The role of the complementary space
     J. Chem. Phys., 2013 139 
     doi.org/10.1063/1.4819264
  5. Neese,F.
     Software update: the ORCA program system, version 4.0
     WIRES Comput. Molec. Sci., 2018 8(1)1-6
     doi.org/10.1002/wcms.1327
  6. Neese,F.; Wennmohs,F.; Becker,U.; Riplinger,C.
     The ORCA quantum chemistry program package
     J. Chem. Phys., 2020 152 Art. No. L224108
     doi.org/10.1063/5.0004608

List of optional additional citations

  1. Neese,F.
     Approximate second-order SCF convergence for spin unrestricted wavefunctions
     Chem. Phys. Lett., 2000 325(1-3)93-98
     doi.org/10.1016/s0009-2614(00)00662-x

Timings for individual modules:

Sum of individual times          ...        8.401 sec (=   0.140 min)
Startup calculation              ...        1.568 sec (=   0.026 min)  18.7 %
SCF iterations                   ...        6.198 sec (=   0.103 min)  73.8 %
Property calculations            ...        0.635 sec (=   0.011 min)   7.6 %
                             ****ORCA TERMINATED NORMALLY****
TOTAL RUN TIME: 0 days 0 hours 0 minutes 9 seconds 228 msec
