
                                 *****************
                                 * O   R   C   A *
                                 *****************

                                            #,                                       
                                            ###                                      
                                            ####                                     
                                            #####                                    
                                            ######                                   
                                           ########,                                 
                                     ,,################,,,,,                         
                               ,,#################################,,                 
                          ,,##########################################,,             
                       ,#########################################, ''#####,          
                    ,#############################################,,   '####,        
                  ,##################################################,,,,####,       
                ,###########''''           ''''###############################       
              ,#####''   ,,,,##########,,,,          '''####'''          '####       
            ,##' ,,,,###########################,,,                        '##       
           ' ,,###''''                  '''############,,,                           
         ,,##''                                '''############,,,,        ,,,,,,###''
      ,#''                                            '''#######################'''  
     '                                                          ''''####''''         
             ,#######,   #######,   ,#######,      ##                                
            ,#'     '#,  ##    ##  ,#'     '#,    #''#        ,####,   ,####,        
            ##       ##  ##   ,#'  ##            #'  '#       #'       #'  '#        
            ##       ##  #######   ##           ,######,      #####,   #    #        
            '#,     ,#'  ##    ##  '#,     ,#' ,#      #,     #,   #   #,  ,#        
             '#######'   ##     ##  '#######'  #'      '#     '####' # '####'        



                #########################################################
                #                        -***-                          #
                #          Department of theory and spectroscopy        #
                #                                                       #
                #                      Frank Neese                      #
                #                                                       #
                #     Directorship, Architecture, Infrastructure        #
                #                    SHARK, DRIVERS                     #
                #        Core code/Algorithms in most modules           #
                #                                                       #
                #        Max Planck Institute fuer Kohlenforschung      #
                #                Kaiser Wilhelm Platz 1                 #
                #                 D-45470 Muelheim/Ruhr                 #
                #                      Germany                          #
                #                                                       #
                #                  All rights reserved                  #
                #                        -***-                          #
                #########################################################


                         Program Version 6.0.1  -  RELEASE   -


 With contributions from (in alphabetic order):
[Max-Planck-Institut fuer Kohlenforschung]                               
  Daniel Aravena         : Magnetic Suceptibility                        
  Michael Atanasov       : Ab Initio Ligand Field Theory (pilot matlab implementation)
  Alexander A. Auer      : GIAO ZORA, VPT2 properties, NMR spectrum      
  Ute Becker             : All parallelization in ORCA, NUMFREQ, NUMCALC 
  Giovanni Bistoni       : ED, misc. LED, open-shell LED, HFLD           
  Martin Brehm           : Molecular dynamics                            
  Dmytro Bykov           : pre 5.0 version of the SCF Hessian            
  Marcos Casanova-Páez   : Triplet and SCS-CIS(D). UHF-(DLPNO)-IP/EA/STEOM-CCSD. UHF-CVS-IP/STEOM-CCSD   
  Vijay G. Chilkuri      : MRCI spin determinant printing, contributions to CSF-ICE 
  Pauline Colinet        : FMM embedding                                 
  Dipayan Datta          : RHF DLPNO-CCSD density                        
  Achintya Kumar Dutta   : EOM-CC, STEOM-CC                              
  Nicolas Foglia         : Exact transition moments, OPA infrastructure, MCD improvements    
  Dmitry Ganyushin       : Spin-Orbit,Spin-Spin,Magnetic field MRCI      
  Miquel Garcia-Rates    : C-PCM and meta-GGA Hessian, CCSD/C-PCM, Gaussian charge scheme 
  Tiago L. C. Gouveia    : GS-ROHF, GS-ROCIS                             
  Yang Guo               : DLPNO-NEVPT2, F12-NEVPT2, CIM, IAO-localization        
  Andreas Hansen         : Spin unrestricted coupled pair/coupled cluster methods 
  Ingolf Harden          : AUTO-CI MPn and infrastructure                
  Benjamin Helmich-Paris : MC-RPA, TRAH-(SCF,CASSCF), AVAS, COSX integrals, SCF dyn. polar. 
  Lee Huntington         : MR-EOM, pCC                                   
  Robert Izsak           : Overlap fitted RIJCOSX, COSX-SCS-MP3, EOM     
  Riya Kayal             : Wick's Theorem for AUTO-CI, AUTO-CI UHF-CCSDT 
  Emily Kempfer          : AUTO-CI, RHF CISDT and CCSDT                  
  Christian Kollmar      : KDIIS, OOCD, Brueckner-CCSD(T), CCSD density, CASPT2, CASPT2-K, improved NEVPT2 
  Axel Koslowski         : Symmetry handling                             
  Simone Kossmann        : meta-GGA functionals, TD-DFT gradient, OOMP2, (MP2 Hessian; deprecated post 5.0) 
  Lucas Lang             : DCDCAS                                        
  Marvin Lechner         : AUTO-CI (C++ implementation), FIC-MRCC        
  Spencer Leger          : CASSCF response                               
  Dagmar Lenk            : GEPOL surface, SMD, ORCA-2-JSON               
  Dimitrios Liakos       : Extrapolation schemes; Compound Job, initial MDCI parallelization 
  Dimitrios Manganas     : Further ROCIS development; embedding schemes. LFT, Crystal Embedding 
  Dimitrios Pantazis     : SARC Basis sets                               
  Anastasios Papadopoulos: AUTO-CI, single reference methods and gradients 
  Taras Petrenko         : pre 6.0 DFT Hessian and TD-DFT gradient, (ASA, deprecated), ECA, 1-Electron XAS/XES, NRVS 
  Peter Pinski           : DLPNO-MP2, DLPNO-MP2 Gradient                 
  Christoph Reimann      : Effective Core Potentials                     
  Marius Retegan         : Local ZFS, SOC                                
  Christoph Riplinger    : Optimizer, TS searches, QM/MM, DLPNO-CCSD(T), (RO)-DLPNO pert. Triples 
  Michael Roemelt        : Original ROCIS implementation                 
  Masaaki Saitow         : Open-shell DLPNO-CCSD energy and density      
  Barbara Sandhoefer     : DKH picture change effects                    
  Kantharuban Sivalingam : CASSCF convergence/infrastructure, NEVPT2 and variants, FIC-MRCI 
  Bernardo de Souza      : ESD, SOC TD-DFT                               
  Georgi L. Stoychev     : AutoAux, RI-MP2 NMR, DLPNO-MP2 response, X2C  
  Van Anh Tran           : RI-MP2 g-tensors                              
  Willem Van den Heuvel  : Paramagnetic NMR                              
  Zikuan Wang            : NOTCH, Electric field optimization            
  Frank Wennmohs         : Technical directorship and infrastructure     
  Hang Xu                : AUTO-CI-Response properties                   
                                                                         
[FACCTs GmbH]                                                            
  Markus Bursch, Miquel Garcia-Rates, Christoph Riplinger, Bernardo de Souza, Georgi L. Stoychev 
                                                                 
  APM, Basis sets (HGBS, AHGBS, def-TZVP (Ac-Lr), def2-XVPD (La-Lu)), CI-OPT, improved COSX, DLPNO-Multilevel,           
  DOCKER, DRACO, updates on ESD, GOAT, IRC, LR-CPCM, MBIS, meta-GGA TD-DFT gradient, ML-optimized integration grids, 
  MM, NACMEs, nearIR, NEB, NEB-TS, NL-DFT gradient (VV10), 2- and 3-layer-ONIOM, interface openCOSMO-RS, QMMM,   
  Crystal-QMMM, SF, symmetry and pop. for TD-DFT, r2SCAN hybrids, SOLVATOR                                   
                                                                         
[Other institutions]                                                     
  V. Asgeirsson          : NEB                                           
  Christoph Bannwarth    : sTDA-DFT, sTD-DFT, PBEh-3c, B97-3c, D3        
  Sebastian Ehlert       : rSCAN, r2SCAN, r2SCAN-3c, D4, dhf basis sets  
  Marvin Friede          : D4 for Fr, Ra, Ac-Lr                          
  Lars Goerigk           : TD-DFT with DH, B97 family of functionals     
  Stefan Grimme          : VdW corrections, initial TS optimization, DFT functionals, gCP, sTDA/sTD-DF 
  Waldemar Hujo          : DFT-NL                                        
  H. Jonsson             : NEB                                           
  Holger Kruse           : gCP                                           
  Marcel Mueller         : wB97X-3c, vDZP basis set                      
  Hagen Neugebauer       : wr2SCAN                                       
  Tobias Risthaus        : range-separated hybrid DFT                    
  Lukas Wittmann         : regularized MP2, r2SCAN double-hybrids, wr2SCAN        
                                                                         
We gratefully acknowledge several colleagues who have allowed us to      
interface, adapt or use parts of their codes:                            
  Ed Valeev, F. Pavosevic, A. Kumar             : LibInt (2-el integral package), F12 methods 
  Garnet Chan, S. Sharma, J. Yang, R. Olivares  : DMRG                   
  Ulf Ekstrom                                   : XCFun DFT Library      
  Mihaly Kallay                                 : mrcc  (arbitrary order and MRCC methods)
  Frank Weinhold                                : gennbo (NPA and NBO analysis)           
  Simon Mueller                                 : openCOSMO-RS                            
  Christopher J. Cramer and Donald G. Truhlar   : smd solvation model                     
  S Lehtola, MJT Oliveira, MAL Marques          : LibXC Library                           
  Liviu Ungur et al                             : ANISO software                          


 Your calculation uses the libint2 library for the computation of 2-el integrals
 For citations please refer to: http://libint.valeyev.net

 Your ORCA version has been built with support for libXC version: 6.2.2
 For citations please refer to: https://libxc.gitlab.io

 This ORCA versions uses:
   CBLAS   interface :  Fast vector & matrix operations
   LAPACKE interface :  Fast linear algebra routines
   SCALAPACK package :  Parallel linear algebra routines
   Shared memory     :  Shared parallel matrices
   BLAS/LAPACK       :  OpenBLAS 0.3.27  USE64BITINT DYNAMIC_ARCH NO_AFFINITY SkylakeX SINGLE_THREADED
        Core in use  :  SkylakeX
   Copyright (c) 2011-2014, The OpenBLAS Project


Your calculation utilizes the atom-pairwise dispersion correction
with the Becke-Johnson damping scheme (D3BJ)


Warning: RI is on but no J-basis has been assigned. Assigning Def2/J (nothing to worry about!)
================================================================================

----- Orbital basis set information -----
Your calculation utilizes the basis: def2-SVP
   F. Weigend and R. Ahlrichs, Phys. Chem. Chem. Phys. 7, 3297 (2005).

----- AuxJ basis set information -----
Your calculation utilizes the auxiliary basis: def2/J
   F. Weigend, Phys. Chem. Chem. Phys. 8, 1057 (2006).

================================================================================
                                        WARNINGS
                       Please study these warnings very carefully!
================================================================================


WARNING: Geometry Optimization
  ===> : Switching off AutoStart
         For restart on a previous wavefunction, please use MOREAD

================================================================================
                                       INPUT FILE
================================================================================
NAME = 4nitroaniline_2.inp
|  1> ! B3LYP def2-SVP OPT TightSCF ALLPOP KEEPDENS D3BJ
|  2> 
|  3> %pal
|  4> nprocs 4
|  5> end
|  6> 
|  7> * xyz 0 1
|  8> O          2.73740        1.09760       -0.00070
|  9> O          2.73730       -1.09760        0.00030
| 10> N          2.12920        0.00000       -0.00010
| 11> N         -3.49080       -0.00010        0.00010
| 12> C          0.70930        0.00000        0.00050
| 13> C         -2.08040        0.00000       -0.00050
| 14> C          0.01200        1.20800        0.00050
| 15> C          0.01190       -1.20800        0.00010
| 16> C         -1.38290        1.20800        0.00000
| 17> C         -1.38300       -1.20790       -0.00040
| 18> H          0.52190        2.16800        0.00080
| 19> H          0.52180       -2.16800        0.00000
| 20> H         -1.91540        2.15580        0.00030
| 21> H         -1.91540       -2.15570       -0.00060
| 22> H         -3.99700        0.87550       -0.00160
| 23> H         -3.99700       -0.87560       -0.00190
| 24> *
| 25> 
| 26>                          ****END OF INPUT****
================================================================================

                       *****************************
                       * Geometry Optimization Run *
                       *****************************

Geometry optimization settings:
Update method            Update   .... BFGS
Choice of coordinates    CoordSys .... (2022) Redundant Internals
Initial Hessian          InHess   .... Almloef's Model
Max. no of cycles        MaxIter  .... 50

Convergence Tolerances:
Energy Change            TolE     ....  5.0000e-06 Eh
Max. Gradient            TolMAXG  ....  3.0000e-04 Eh/bohr
RMS Gradient             TolRMSG  ....  1.0000e-04 Eh/bohr
Max. Displacement        TolMAXD  ....  4.0000e-03 bohr
RMS Displacement         TolRMSD  ....  2.0000e-03 bohr
Strict Convergence                .... False

------------------------------------------------------------------------------
                        ORCA OPTIMIZATION COORDINATE SETUP
------------------------------------------------------------------------------

The optimization will be done in redundant internal coordinates (2022)
Making redundant internal coordinates   ...  (2022 redundants) done
Evaluating the initial hessian          ...  (Almloef) done
Evaluating the coordinates              ...  done
Calculating the B-matrix                .... done
Calculating the G-matrix                .... done
Diagonalizing the G-matrix              .... done
The first mode is                       ....   30
The number of degrees of freedom        ....   42

    -----------------------------------------------------------------
                    Redundant Internal Coordinates


    -----------------------------------------------------------------
         Definition                    Initial Value    Approx d2E/dq
    -----------------------------------------------------------------
      1. B(N   2,O   1)                  1.2548         0.823612   
      2. B(N   2,O   0)                  1.2548         0.823465   
      3. B(C   4,N   2)                  1.4199         0.501385   
      4. B(C   5,N   3)                  1.4104         0.519192   
      5. B(C   6,C   4)                  1.3948         0.613856   
      6. B(C   7,C   4)                  1.3949         0.613743   
      7. B(C   8,C   5)                  1.3949         0.613630   
      8. B(C   8,C   6)                  1.3949         0.613650   
      9. B(C   9,C   7)                  1.3949         0.613650   
     10. B(C   9,C   5)                  1.3948         0.613939   
     11. B(H  10,C   6)                  1.0870         0.364073   
     12. B(H  11,C   7)                  1.0870         0.364073   
     13. B(H  12,C   8)                  1.0871         0.363899   
     14. B(H  13,C   9)                  1.0871         0.363964   
     15. B(H  14,N   3)                  1.0114         0.430499   
     16. B(H  15,N   3)                  1.0113         0.430635   
     17. A(O   0,N   2,C   4)          118.9916         0.431050   
     18. A(O   1,N   2,C   4)          118.9876         0.431063   
     19. A(O   0,N   2,O   1)          122.0207         0.468504   
     20. A(C   5,N   3,H  15)          120.0397         0.347771   
     21. A(H  14,N   3,H  15)          119.9309         0.302777   
     22. A(C   5,N   3,H  14)          120.0288         0.347753   
     23. A(C   6,C   4,C   7)          120.0063         0.432500   
     24. A(N   2,C   4,C   7)          119.9986         0.414420   
     25. A(N   2,C   4,C   6)          119.9950         0.414433   
     26. A(N   3,C   5,C   8)          120.0062         0.416987   
     27. A(C   8,C   5,C   9)          119.9972         0.432496   
     28. A(N   3,C   5,C   9)          119.9966         0.417024   
     29. A(C   8,C   6,H  10)          117.9748         0.352949   
     30. A(C   4,C   6,H  10)          122.0301         0.352969   
     31. A(C   4,C   6,C   8)          119.9950         0.432488   
     32. A(C   4,C   7,C   9)          119.9945         0.432474   
     33. A(C   9,C   7,H  11)          117.9789         0.352949   
     34. A(C   4,C   7,H  11)          122.0266         0.352958   
     35. A(C   6,C   8,H  12)          119.3285         0.352921   
     36. A(C   5,C   8,H  12)          120.6694         0.352919   
     37. A(C   5,C   8,C   6)          120.0022         0.432459   
     38. A(C   5,C   9,C   7)          120.0048         0.432498   
     39. A(C   7,C   9,H  13)          119.3198         0.352932   
     40. A(C   5,C   9,H  13)          120.6755         0.352960   
     41. D(C   6,C   4,N   2,O   1)    179.9797         0.019878   
     42. D(C   7,C   4,N   2,O   0)    179.9491         0.019878   
     43. D(C   6,C   4,N   2,O   0)     -0.0039         0.019878   
     44. D(C   7,C   4,N   2,O   1)     -0.0672         0.019878   
     45. D(C   9,C   5,N   3,H  14)   -179.8935         0.021369   
     46. D(C   8,C   5,N   3,H  14)      0.1631         0.021369   
     47. D(C   9,C   5,N   3,H  15)     -0.1638         0.021369   
     48. D(C   8,C   5,N   3,H  15)    179.8928         0.021369   
     49. D(H  10,C   6,C   4,C   7)   -179.9997         0.026044   
     50. D(H  10,C   6,C   4,N   2)     -0.0466         0.026044   
     51. D(C   8,C   6,C   4,C   7)     -0.0047         0.026044   
     52. D(C   8,C   6,C   4,N   2)    179.9483         0.026044   
     53. D(C   9,C   7,C   4,C   6)      0.0047         0.026034   
     54. D(C   9,C   7,C   4,N   2)   -179.9483         0.026034   
     55. D(H  11,C   7,C   4,N   2)      0.0415         0.026034   
     56. D(H  11,C   7,C   4,C   6)    179.9946         0.026034   
     57. D(H  12,C   8,C   6,H  10)     -0.0227         0.026025   
     58. D(C   5,C   8,C   6,H  10)    179.9951         0.026025   
     59. D(C   5,C   8,C   6,C   4)     -0.0000         0.026025   
     60. D(H  12,C   8,C   5,C   9)   -179.9772         0.026024   
     61. D(H  12,C   8,C   5,N   3)     -0.0338         0.026024   
     62. D(H  12,C   8,C   6,C   4)    179.9822         0.026025   
     63. D(C   6,C   8,C   5,C   9)      0.0047         0.026024   
     64. D(C   6,C   8,C   5,N   3)    179.9481         0.026024   
     65. D(C   5,C   9,C   7,H  11)   -179.9902         0.026025   
     66. D(C   5,C   9,C   7,C   4)      0.0000         0.026025   
     67. D(H  13,C   9,C   5,C   8)    179.9886         0.026051   
     68. D(H  13,C   9,C   5,N   3)      0.0452         0.026051   
     69. D(C   7,C   9,C   5,C   8)     -0.0047         0.026051   
     70. D(H  13,C   9,C   7,C   4)   -179.9934         0.026025   
     71. D(C   7,C   9,C   5,N   3)   -179.9481         0.026051   
     72. D(H  13,C   9,C   7,H  11)      0.0163         0.026025   
    -----------------------------------------------------------------

Number of atoms                         .... 16
Number of degrees of freedom            .... 72


         *************************************************************
         *                GEOMETRY OPTIMIZATION CYCLE   1            *
         *************************************************************
---------------------------------
CARTESIAN COORDINATES (ANGSTROEM)
---------------------------------
  O      2.737400    1.097600   -0.000700
  O      2.737300   -1.097600    0.000300
  N      2.129200    0.000000   -0.000100
  N     -3.490800   -0.000100    0.000100
  C      0.709300    0.000000    0.000500
  C     -2.080400    0.000000   -0.000500
  C      0.012000    1.208000    0.000500
  C      0.011900   -1.208000    0.000100
  C     -1.382900    1.208000    0.000000
  C     -1.383000   -1.207900   -0.000400
  H      0.521900    2.168000    0.000800
  H      0.521800   -2.168000    0.000000
  H     -1.915400    2.155800    0.000300
  H     -1.915400   -2.155700   -0.000600
  H     -3.997000    0.875500   -0.001600
  H     -3.997000   -0.875600   -0.001900

----------------------------
CARTESIAN COORDINATES (A.U.)
----------------------------
  NO LB      ZA    FRAG     MASS         X           Y           Z
   0 O     8.0000    0    15.999    5.172936    2.074163   -0.001323
   1 O     8.0000    0    15.999    5.172747   -2.074163    0.000567
   2 N     7.0000    0    14.007    4.023605    0.000000   -0.000189
   3 N     7.0000    0    14.007   -6.596656   -0.000189    0.000189
   4 C     6.0000    0    12.011    1.340383    0.000000    0.000945
   5 C     6.0000    0    12.011   -3.931386    0.000000   -0.000945
   6 C     6.0000    0    12.011    0.022677    2.282789    0.000945
   7 C     6.0000    0    12.011    0.022488   -2.282789    0.000189
   8 C     6.0000    0    12.011   -2.613302    2.282789    0.000000
   9 C     6.0000    0    12.011   -2.613491   -2.282600   -0.000756
  10 H     1.0000    0     1.008    0.986248    4.096926    0.001512
  11 H     1.0000    0     1.008    0.986059   -4.096926    0.000000
  12 H     1.0000    0     1.008   -3.619581    4.073872    0.000567
  13 H     1.0000    0     1.008   -3.619581   -4.073683   -0.001134
  14 H     1.0000    0     1.008   -7.553235    1.654455   -0.003024
  15 H     1.0000    0     1.008   -7.553235   -1.654644   -0.003590

--------------------------------
INTERNAL COORDINATES (ANGSTROEM)
--------------------------------
 O      0   0   0     0.000000000000     0.00000000     0.00000000
 O      1   0   0     2.195200230047     0.00000000     0.00000000
 N      2   1   0     1.254795413603    28.99024396     0.00000000
 N      3   2   1     5.620000004448   118.98661322   179.99155995
 C      3   2   1     1.419900126769   118.98762182   180.01690803
 C      4   3   2     1.410400131168     0.02254159   262.21997363
 C      5   3   2     1.394808692975   119.99504774   179.97968152
 C      5   3   2     1.394858745537   119.99859586   359.93275631
 C      7   5   3     1.394900089612   119.99504857   179.94833114
 C      6   4   9     1.394772088909   119.99659458   179.94339409
 H      7   5   3     1.087013385382   122.03012840   359.95339247
 H      8   5   3     1.087013348584   122.02657242     0.04150231
 H      9   7   5     1.087143587572   119.32846038   179.98218104
 H     10   6   4     1.087094586501   120.67546122     0.04520816
 H      4   3   2     1.011393439765   120.03190364   180.09040889
 H      4   3   2     1.011307416170   120.03675953   359.84592314

---------------------------
INTERNAL COORDINATES (A.U.)
---------------------------
 O      0   0   0     0.000000000000     0.00000000     0.00000000
 O      1   0   0     4.148327243910     0.00000000     0.00000000
 N      2   1   0     2.371219685811    28.99024396     0.00000000
 N      3   2   1    10.620260881044   118.98661322   179.99155995
 C      3   2   1     2.683222377114   118.98762182   180.01690803
 C      4   3   2     2.665269987155     0.02254159   262.21997363
 C      5   3   2     2.635806438936   119.99504774   179.97968152
 C      5   3   2     2.635901024569   119.99859586   359.93275631
 C      7   5   3     2.635979153549   119.99504857   179.94833114
 C      6   4   9     2.635737267276   119.99659458   179.94339409
 H      7   5   3     2.054157602279   122.03012840   359.95339247
 H      8   5   3     2.054157532741   122.02657242     0.04150231
 H      9   7   5     2.054403648761   119.32846038   179.98218104
 H     10   6   4     2.054311050155   120.67546122     0.04520816
 H      4   3   2     1.911256614801   120.03190364   180.09040889
 H      4   3   2     1.911094053764   120.03675953   359.84592314

---------------------
BASIS SET INFORMATION
---------------------
There are 4 groups of distinct atoms

 Group   1 Type O   : 7s4p1d contracted to 3s2p1d pattern {511/31/1}
 Group   2 Type N   : 7s4p1d contracted to 3s2p1d pattern {511/31/1}
 Group   3 Type C   : 7s4p1d contracted to 3s2p1d pattern {511/31/1}
 Group   4 Type H   : 4s1p contracted to 2s1p pattern {31/1}

Atom   0O    basis set group =>   1
Atom   1O    basis set group =>   1
Atom   2N    basis set group =>   2
Atom   3N    basis set group =>   2
Atom   4C    basis set group =>   3
Atom   5C    basis set group =>   3
Atom   6C    basis set group =>   3
Atom   7C    basis set group =>   3
Atom   8C    basis set group =>   3
Atom   9C    basis set group =>   3
Atom  10H    basis set group =>   4
Atom  11H    basis set group =>   4
Atom  12H    basis set group =>   4
Atom  13H    basis set group =>   4
Atom  14H    basis set group =>   4
Atom  15H    basis set group =>   4
---------------------------------
AUXILIARY/J BASIS SET INFORMATION
---------------------------------
There are 4 groups of distinct atoms

 Group   1 Type O   : 12s5p4d2f1g contracted to 6s4p3d1f1g pattern {711111/2111/211/2/1}
 Group   2 Type N   : 12s5p4d2f1g contracted to 6s4p3d1f1g pattern {711111/2111/211/2/1}
 Group   3 Type C   : 12s5p4d2f1g contracted to 6s4p3d1f1g pattern {711111/2111/211/2/1}
 Group   4 Type H   : 5s2p1d contracted to 3s1p1d pattern {311/2/1}

Atom   0O    basis set group =>   1
Atom   1O    basis set group =>   1
Atom   2N    basis set group =>   2
Atom   3N    basis set group =>   2
Atom   4C    basis set group =>   3
Atom   5C    basis set group =>   3
Atom   6C    basis set group =>   3
Atom   7C    basis set group =>   3
Atom   8C    basis set group =>   3
Atom   9C    basis set group =>   3
Atom  10H    basis set group =>   4
Atom  11H    basis set group =>   4
Atom  12H    basis set group =>   4
Atom  13H    basis set group =>   4
Atom  14H    basis set group =>   4
Atom  15H    basis set group =>   4
--------------------------------------------------------------------------
By default, for Open MPI 4.0 and later, infiniband ports on a device
are not used by default.  The intent is to use UCX for these devices.
You can override this policy by setting the btl_openib_allow_ib MCA parameter
to true.

  Local host:              psid00
  Local adapter:           mlx5_0
  Local port:              1

--------------------------------------------------------------------------
--------------------------------------------------------------------------
WARNING: There was an error initializing an OpenFabrics device.

  Local host:   psid00
  Local device: mlx5_0
--------------------------------------------------------------------------


           ************************************************************
           *        Program running with 4 parallel MPI-processes     *
           *              working on a common directory               *
           ************************************************************
------------------------------------------------------------------------------
                             ORCA STARTUP CALCULATIONS
                           -- RI-GTO INTEGRALS CHOSEN --
------------------------------------------------------------------------------
------------------------------------------------------------------------------
                   ___                                                        
                  /   \      - P O W E R E D   B Y -                         
                 /     \                                                     
                 |  |  |   _    _      __       _____    __    __             
                 |  |  |  | |  | |    /  \     |  _  \  |  |  /  |          
                  \  \/   | |  | |   /    \    | | | |  |  | /  /          
                 / \  \   | |__| |  /  /\  \   | |_| |  |  |/  /          
                |  |  |   |  __  | /  /__\  \  |    /   |      \           
                |  |  |   | |  | | |   __   |  |    \   |  |\   \          
                \     /   | |  | | |  |  |  |  | |\  \  |  | \   \       
                 \___/    |_|  |_| |__|  |__|  |_| \__\ |__|  \__/        
                                                                              
                      - O R C A' S   B I G   F R I E N D -                    
                                      &                                       
                       - I N T E G R A L  F E E D E R -                       
                                                                              
 v1 FN, 2020, v2 2021, v3 2022-2024                                           
------------------------------------------------------------------------------


----------------------
SHARK INTEGRAL PACKAGE
----------------------

Number of atoms                             ...     16
Number of basis functions                   ...    170
Number of shells                            ...     78
Maximum angular momentum                    ...      2
Integral batch strategy                     ... SHARK/LIBINT Hybrid
RI-J (if used) integral strategy            ... SPLIT-RIJ (Revised 2003 algorithm where possible)
Printlevel                                  ...      1
Contraction scheme used                     ... SEGMENTED contraction
Prescreening option                         ... SCHWARTZ
   Thresh                                   ... 2.500e-11
   Tcut                                     ... 2.500e-12
   Tpresel                                  ... 2.500e-12 
Coulomb Range Separation                    ... NOT USED
Exchange Range Separation                   ... NOT USED
Multipole approximations                    ... NOT USED
Finite Nucleus Model                        ... NOT USED
CABS basis                                  ... NOT available
Auxiliary Coulomb fitting basis             ... AVAILABLE
   # of basis functions in Aux-J            ...    556
   # of shells in Aux-J                     ...    180
   Maximum angular momentum in Aux-J        ...      4
Auxiliary J/K fitting basis                 ... NOT available
Auxiliary Correlation fitting basis         ... NOT available
Auxiliary 'external' fitting basis          ... NOT available

Checking pre-screening integrals            ... done (  0.0 sec) Dimension = 78
Check shell pair data                       ... done (  0.0 sec)
Shell pair information
Shell pair cut-off parameter TPreSel        ...   2.5e-12
Total number of shell pairs                 ...      3081
Shell pairs after pre-screening             ...      2781
Total number of primitive shell pairs       ...     11473
Primitive shell pairs kept                  ...      7384
          la=0 lb=0:    811 shell pairs
          la=1 lb=0:    998 shell pairs
          la=1 lb=1:    326 shell pairs
          la=2 lb=0:    366 shell pairs
          la=2 lb=1:    232 shell pairs
          la=2 lb=2:     48 shell pairs

Calculating one electron integrals          ... done (  0.0 sec)
Calculating RI/J V-Matrix + Cholesky decomp.... done (  0.0 sec)
Calculating Nuclear repulsion               ... done (  0.0 sec) ENN=    493.902998359412 Eh

Diagonalization of the overlap matrix:
Smallest eigenvalue                        ... 2.482e-04
Time for diagonalization                   ...    0.002 sec
Threshold for overlap eigenvalues          ... 1.000e-07
Number of eigenvalues below threshold      ... 0
Time for construction of square roots      ...    0.001 sec
Total time needed                          ...    0.004 sec

-------------------
DFT GRID GENERATION
-------------------

General Integration Accuracy     IntAcc      ... 4.388
Radial Grid Type                 RadialGrid  ... OptM3 with GC (2021)
Angular Grid (max. ang.)         AngularGrid ... 4 (Lebedev-302)
Angular grid pruning method      GridPruning ... 4 (adaptive)
Weight generation scheme         WeightScheme... mBecke (2022)
Basis function cutoff            BFCut       ... 1.0000e-11
Integration weight cutoff        WCut        ... 1.0000e-14
Partially contracted basis set               ... off
Rotationally invariant grid construction     ... off
Angular grids for H and He will be reduced by one unit

Total number of grid points                  ...    79584
Total number of batches                      ...     1253
Average number of points per batch           ...       63
Average number of grid points per atom       ...     4974

--------------------
COSX GRID GENERATION
--------------------

GRIDX 1
-------
General Integration Accuracy     IntAcc      ... 3.816
Radial Grid Type                 RadialGrid  ... OptM3 with GC (2021)
Angular Grid (max. ang.)         AngularGrid ... 1 (Lebedev-50)
Angular grid pruning method      GridPruning ... 4 (adaptive)
Weight generation scheme         WeightScheme... mBecke (2022)
Basis function cutoff            BFCut       ... 1.0000e-11
Integration weight cutoff        WCut        ... 1.0000e-14
Partially contracted basis set               ... on
Rotationally invariant grid construction     ... off
Angular grids for H and He will be reduced by one unit

Total number of grid points                  ...    10156
Total number of batches                      ...       87
Average number of points per batch           ...      116
Average number of grid points per atom       ...      635
UseSFitting                                  ... on

GRIDX 2
-------
General Integration Accuracy     IntAcc      ... 4.020
Radial Grid Type                 RadialGrid  ... OptM3 with GC (2021)
Angular Grid (max. ang.)         AngularGrid ... 2 (Lebedev-110)
Angular grid pruning method      GridPruning ... 4 (adaptive)
Weight generation scheme         WeightScheme... mBecke (2022)
Basis function cutoff            BFCut       ... 1.0000e-11
Integration weight cutoff        WCut        ... 1.0000e-14
Partially contracted basis set               ... on
Rotationally invariant grid construction     ... off
Angular grids for H and He will be reduced by one unit

Total number of grid points                  ...    22583
Total number of batches                      ...      182
Average number of points per batch           ...      124
Average number of grid points per atom       ...     1411
UseSFitting                                  ... on

GRIDX 3
-------
General Integration Accuracy     IntAcc      ... 4.338
Radial Grid Type                 RadialGrid  ... OptM3 with GC (2021)
Angular Grid (max. ang.)         AngularGrid ... 3 (Lebedev-194)
Angular grid pruning method      GridPruning ... 4 (adaptive)
Weight generation scheme         WeightScheme... mBecke (2022)
Basis function cutoff            BFCut       ... 1.0000e-11
Integration weight cutoff        WCut        ... 1.0000e-14
Partially contracted basis set               ... on
Rotationally invariant grid construction     ... off
Angular grids for H and He will be reduced by one unit

Total number of grid points                  ...    49823
Total number of batches                      ...      398
Average number of points per batch           ...      125
Average number of grid points per atom       ...     3114
UseSFitting                                  ... on
Initializing property integral containers    ... done (  0.0 sec)

SHARK setup successfully completed in   0.9 seconds

Maximum memory used throughout the entire STARTUP-calculation: 22.8 MB
[psid00:39351] 3 more processes have sent help message help-mpi-btl-openib.txt / ib port not selected
[psid00:39351] Set MCA parameter "orte_base_help_aggregate" to 0 to see all help / error messages
[psid00:39351] 3 more processes have sent help message help-mpi-btl-openib.txt / error in device init
--------------------------------------------------------------------------
By default, for Open MPI 4.0 and later, infiniband ports on a device
are not used by default.  The intent is to use UCX for these devices.
You can override this policy by setting the btl_openib_allow_ib MCA parameter
to true.

  Local host:              psid00
  Local adapter:           mlx5_0
  Local port:              1

--------------------------------------------------------------------------
--------------------------------------------------------------------------
WARNING: There was an error initializing an OpenFabrics device.

  Local host:   psid00
  Local device: mlx5_0
--------------------------------------------------------------------------


           ************************************************************
           *        Program running with 4 parallel MPI-processes     *
           *              working on a common directory               *
           ************************************************************
-------------------------------------------------------------------------------
                                 ORCA GUESS
                   Start orbitals & Density for SCF / CASSCF
-------------------------------------------------------------------------------

------------
SCF SETTINGS
------------
Hamiltonian:
 Density Functional     Method          .... DFT(GTOs)
 Exchange Functional    Exchange        .... B88
   X-Alpha parameter    XAlpha          ....  0.666667
   Becke's b parameter  XBeta           ....  0.004200
 Correlation Functional Correlation     .... LYP
 LDA part of GGA corr.  LDAOpt          .... VWN-5
 Gradients option       PostSCFGGA      .... off
 Hybrid DFT is turned on
   Fraction HF Exchange ScalHFX         ....  0.200000
   Scaling of DF-GGA-X  ScalDFX         ....  0.720000
   Scaling of DF-GGA-C  ScalDFC         ....  0.810000
   Scaling of DF-LDA-C  ScalLDAC        ....  1.000000
   Perturbative correction              ....  0.000000
   NL short-range parameter             ....  4.800000
 RI-approximation to the Coulomb term is turned on
   Number of AuxJ basis functions       .... 556
   RIJ-COSX (HFX calculated with COS-X)).... on


General Settings:
 Integral files         IntName         .... 4nitroaniline_2
 Hartree-Fock type      HFTyp           .... RHF
 Total Charge           Charge          ....    0
 Multiplicity           Mult            ....    1
 Number of Electrons    NEL             ....   72
 Basis Dimension        Dim             ....  170
 Nuclear Repulsion      ENuc            ....    493.9029983594 Eh

Convergence Acceleration:
 AO-DIIS                CNVDIIS         .... on
   Start iteration      DIISMaxIt       ....    12
   Startup error        DIISStart       ....  0.200000
   # of expansion vecs  DIISMaxEq       ....     5
   Bias factor          DIISBfac        ....   1.050
   Max. coefficient     DIISMaxC        ....  10.000
 MO-DIIS                CNVKDIIS        .... off
 Trust-Rad. Augm. Hess. CNVTRAH         .... auto
   Auto Start mean grad. ratio tolernc. ....  1.125000
   Auto Start start iteration           ....    50
   Auto Start num. interpolation iter.  ....    10
   Max. Number of Micro iterations      ....    24
   Max. Number of Macro iterations      .... Maxiter - #DIIS iter
   Number of Davidson start vectors     ....     2
   Converg. threshold    (grad. norm)   ....   1.000e-05
   Grad. Scal. Fac. for Micro threshold ....   0.100
   Minimum threshold for Micro iter.    ....   1.000e-02
   NR start threshold (gradient norm)   ....   1.000e-04
   Initial trust radius                 ....   0.400
   Minimum AH scaling param. (alpha)    ....   1.000
   Maximum AH scaling param. (alpha)    .... 1000.000
   Quad. conv. algorithm                .... NR
   White noise on init. David. guess    .... on
   Maximum white noise                  ....   0.010
   Pseudo random numbers                .... off
   Inactive MOs                         .... canonical
   Orbital update algorithm             .... Taylor
   Preconditioner                       .... Diag
   Full preconditioner red. dimension   ....   250
 SOSCF                  CNVSOSCF        .... on
   Start iteration      SOSCFMaxIt      ....   150
   Startup grad/error   SOSCFStart      ....  0.003300
   Hessian update       SOSCFHessUp     .... L-BFGS
 Level Shifting         CNVShift        .... on
   Level shift para.    LevelShift      ....    0.2500
   Turn off err/grad.   ShiftErr        ....    0.0010
 Zerner damping         CNVZerner       .... off
 Static damping         CNVDamp         .... on
   Fraction old density DampFac         ....    0.7000
   Max. Damping (<1)    DampMax         ....    0.9800
   Min. Damping (>=0)   DampMin         ....    0.0000
   Turn off err/grad.   DampErr         ....    0.1000

SCF Procedure:
 Maximum # iterations   MaxIter         ....   125
 SCF integral mode      SCFMode         .... Direct
   Integral package                     .... SHARK and LIBINT hybrid scheme
 Reset frequency        DirectResetFreq ....    20
 Integral Threshold     Thresh          ....  2.500e-11 Eh
 Primitive CutOff       TCut            ....  2.500e-12 Eh

Convergence Tolerance:
 Convergence Check Mode ConvCheckMode   .... Total+1el-Energy
 Convergence forced     ConvForced      .... 0
 Energy Change          TolE            ....  1.000e-08 Eh
 1-El. energy change                    ....  1.000e-05 Eh
 Orbital Gradient       TolG            ....  1.000e-05
 Orbital Rotation angle TolX            ....  1.000e-05
 DIIS Error             TolErr          ....  5.000e-07

------------------------------
INITIAL GUESS: MODEL POTENTIAL
------------------------------
Loading Hartree-Fock densities                     ... done
Calculating cut-offs                               ... done
Initializing the effective Hamiltonian             ... done
Setting up the integral package (SHARK)            ... done
Starting the Coulomb interaction                   ... done (   0.0 sec)
Making the grid                                    ... done (   0.1 sec)
Mapping shells                                     ... done
Starting the XC term evaluation                    ... done (   0.0 sec)
  promolecular density results
     # of electrons  =     71.997951912
     EX              =    -62.160143914
     EC              =     -2.490359028
     EX+EC           =    -64.650502942
Transforming the Hamiltonian                       ... done (   0.0 sec)
Diagonalizing the Hamiltonian                      ... done (   0.0 sec)
Back transforming the eigenvectors                 ... done (   0.0 sec)
Now organizing SCF variables                       ... done
                      ------------------
                      INITIAL GUESS DONE (   0.2 sec)
                      ------------------
             **** ENERGY FILE WAS UPDATED (4nitroaniline_2.en.tmp) ****
Finished Guess after   0.4 sec
Maximum memory used throughout the entire GUESS-calculation: 12.9 MB
[psid00:39368] 3 more processes have sent help message help-mpi-btl-openib.txt / ib port not selected
[psid00:39368] Set MCA parameter "orte_base_help_aggregate" to 0 to see all help / error messages
[psid00:39368] 3 more processes have sent help message help-mpi-btl-openib.txt / error in device init
--------------------------------------------------------------------------
By default, for Open MPI 4.0 and later, infiniband ports on a device
are not used by default.  The intent is to use UCX for these devices.
You can override this policy by setting the btl_openib_allow_ib MCA parameter
to true.

  Local host:              psid00
  Local adapter:           mlx5_0
  Local port:              1

--------------------------------------------------------------------------
--------------------------------------------------------------------------
WARNING: There was an error initializing an OpenFabrics device.

  Local host:   psid00
  Local device: mlx5_0
--------------------------------------------------------------------------


           ************************************************************
           *        Program running with 4 parallel MPI-processes     *
           *              working on a common directory               *
           ************************************************************

-------------------------------------------------------------------------------------------
                                      ORCA LEAN-SCF
                              memory conserving SCF solver
-------------------------------------------------------------------------------------------

----------------------------------------D-I-I-S--------------------------------------------
Iteration    Energy (Eh)           Delta-E    RMSDP     MaxDP     DIISErr   Damp  Time(sec)
-------------------------------------------------------------------------------------------
               ***  Starting incremental Fock matrix formation  ***
    1    -491.1929188408004165     0.00e+00  4.27e-03  8.89e-02  2.28e-01  0.700   1.0
    2    -491.3315177984576394    -1.39e-01  2.67e-03  4.87e-02  1.08e-01  0.700   0.6
                               ***Turning on AO-DIIS***
    3    -491.3792608393844148    -4.77e-02  1.26e-03  1.72e-02  3.65e-02  0.700   0.5
    4    -491.4105565228676369    -3.13e-02  2.27e-03  3.28e-02  1.94e-02  0.000   0.5
    5    -491.4806766257830759    -7.01e-02  3.77e-04  6.10e-03  5.92e-03  0.000   0.5
                              *** Initializing SOSCF ***
---------------------------------------S-O-S-C-F--------------------------------------
Iteration    Energy (Eh)           Delta-E    RMSDP     MaxDP     MaxGrad    Time(sec)
--------------------------------------------------------------------------------------
    6    -491.4810944527365564    -4.18e-04  1.27e-04  2.94e-03  1.97e-03     0.5
               *** Restarting incremental Fock matrix formation ***
    7    -491.4810733773492757     2.11e-05  1.01e-04  2.05e-03  4.00e-04     1.0
[psid00:39385] 3 more processes have sent help message help-mpi-btl-openib.txt / ib port not selected
[psid00:39385] Set MCA parameter "orte_base_help_aggregate" to 0 to see all help / error messages
[psid00:39385] 3 more processes have sent help message help-mpi-btl-openib.txt / error in device init
    8    -491.4810714235281921     1.95e-06  4.40e-05  1.18e-03  6.49e-04     0.8
    9    -491.4810799377751209    -8.51e-06  1.83e-05  2.67e-04  8.95e-05     0.8
   10    -491.4810799377173680     5.78e-11  8.31e-06  1.66e-04  1.07e-04     0.7
                 **** Energy Check signals convergence ****

               *****************************************************
               *                     SUCCESS                       *
               *           SCF CONVERGED AFTER  10 CYCLES          *
               *****************************************************

Recomputing exchange energy using gridx3       ... done (    1.483 sec)
Old exchange energy                            :    -12.537613836 Eh
New exchange energy                            :    -12.537629315 Eh
Exchange energy change after final integration :     -0.000015479 Eh
Total energy after final integration           :   -491.481095417 Eh
             **** ENERGY FILE WAS UPDATED (4nitroaniline_2.en.tmp) ****

----------------
TOTAL SCF ENERGY
----------------

Total Energy       :       -491.48109541660443 Eh          -13373.88052 eV

Components:
Nuclear Repulsion  :        493.90299835941244 Eh           13439.78385 eV
Electronic Energy  :       -985.38407829712980 Eh          -26813.66395 eV
One Electron Energy:      -1647.21479863821446 Eh          -44822.99343 eV
Two Electron Energy:        661.83072034108466 Eh           18009.32948 eV

Virial components:
Potential Energy   :       -978.67831320138680 Eh          -26631.19081 eV
Kinetic Energy     :        487.19721778478231 Eh           13257.31028 eV
Virial Ratio       :          2.00879290249501

DFT components:
N(Alpha)           :       35.999990850070 electrons
N(Beta)            :       35.999990850070 electrons
N(Total)           :       71.999981700140 electrons
E(X)               :      -49.938174703674 Eh       
E(C)               :       -2.932133606020 Eh       
E(XC)              :      -52.870308309694 Eh       

---------------
SCF CONVERGENCE
---------------

  Last Energy change         ...   -5.7753e-11  Tolerance :   1.0000e-08
  Last MAX-Density change    ...    1.6611e-04  Tolerance :   1.0000e-07
  Last RMS-Density change    ...    8.3063e-06  Tolerance :   5.0000e-09
  Last DIIS Error            ...    1.9730e-03  Tolerance :   5.0000e-07
  Last Orbital Gradient      ...    1.0664e-04  Tolerance :   1.0000e-05
  Last Orbital Rotation      ...    1.2047e-04  Tolerance :   1.0000e-05


----------------
ORBITAL ENERGIES
----------------

  NO   OCC          E(Eh)            E(eV) 
   0   2.0000     -19.139501      -520.8123 
   1   2.0000     -19.139432      -520.8104 
   2   2.0000     -14.535592      -395.5336 
   3   2.0000     -14.361239      -390.7892 
   4   2.0000     -10.258701      -279.1534 
   5   2.0000     -10.234516      -278.4953 
   6   2.0000     -10.214813      -277.9592 
   7   2.0000     -10.214795      -277.9587 
   8   2.0000     -10.205907      -277.7169 
   9   2.0000     -10.205891      -277.7164 
  10   2.0000      -1.178285       -32.0628 
  11   2.0000      -1.003010       -27.2933 
  12   2.0000      -0.928136       -25.2559 
  13   2.0000      -0.869142       -23.6506 
  14   2.0000      -0.789563       -21.4851 
  15   2.0000      -0.763600       -20.7786 
  16   2.0000      -0.686189       -18.6721 
  17   2.0000      -0.636858       -17.3298 
  18   2.0000      -0.591046       -16.0832 
  19   2.0000      -0.548686       -14.9305 
  20   2.0000      -0.543253       -14.7827 
  21   2.0000      -0.519292       -14.1306 
  22   2.0000      -0.511002       -13.9051 
  23   2.0000      -0.488396       -13.2899 
  24   2.0000      -0.463889       -12.6231 
  25   2.0000      -0.455852       -12.4044 
  26   2.0000      -0.441773       -12.0213 
  27   2.0000      -0.412606       -11.2276 
  28   2.0000      -0.408697       -11.1212 
  29   2.0000      -0.372731       -10.1425 
  30   2.0000      -0.333986        -9.0882 
  31   2.0000      -0.293714        -7.9924 
  32   2.0000      -0.288111        -7.8399 
  33   2.0000      -0.276017        -7.5108 
  34   2.0000      -0.267740        -7.2856 
  35   2.0000      -0.233108        -6.3432 
  36   0.0000      -0.080490        -2.1902 
  37   0.0000      -0.029352        -0.7987 
  38   0.0000       0.019414         0.5283 
  39   0.0000       0.033806         0.9199 
  40   0.0000       0.064834         1.7642 
  41   0.0000       0.069376         1.8878 
  42   0.0000       0.117593         3.1999 
  43   0.0000       0.131710         3.5840 
  44   0.0000       0.148006         4.0274 
  45   0.0000       0.157432         4.2840 
  46   0.0000       0.200034         5.4432 
*Only the first 10 virtual orbitals were printed.

                    ********************************
                    * MULLIKEN POPULATION ANALYSIS *
                    ********************************

-----------------------
MULLIKEN ATOMIC CHARGES
-----------------------
   0 O :   -0.268500
   1 O :   -0.268518
   2 N :    0.239641
   3 N :   -0.099912
   4 C :    0.202745
   5 C :    0.147517
   6 C :   -0.028228
   7 C :   -0.028210
   8 C :   -0.036092
   9 C :   -0.036122
  10 H :    0.002836
  11 H :    0.002832
  12 H :   -0.032616
  13 H :   -0.032641
  14 H :    0.117650
  15 H :    0.117617
Sum of atomic charges:    0.0000000

--------------------------------
MULLIKEN REDUCED ORBITAL CHARGES
--------------------------------
  0 O s       :     3.871170  s :     3.871170
      pz      :     1.442011  p :     4.377201
      px      :     1.670455
      py      :     1.264736
      dz2     :     0.002539  d :     0.020129
      dxz     :     0.001537
      dyz     :     0.004333
      dx2y2   :     0.004975
      dxy     :     0.006745

  1 O s       :     3.871153  s :     3.871153
      pz      :     1.442003  p :     4.377232
      px      :     1.670521
      py      :     1.264708
      dz2     :     0.002539  d :     0.020132
      dxz     :     0.001537
      dyz     :     0.004334
      dx2y2   :     0.004976
      dxy     :     0.006746

  2 N s       :     3.295661  s :     3.295661
      pz      :     1.193941  p :     3.358484
      px      :     1.116634
      py      :     1.047908
      dz2     :     0.004517  d :     0.106214
      dxz     :     0.008068
      dyz     :     0.023511
      dx2y2   :     0.039224
      dxy     :     0.030894

  3 N s       :     3.300552  s :     3.300552
      pz      :     1.752719  p :     3.785536
      px      :     1.049822
      py      :     0.982995
      dz2     :     0.001733  d :     0.013824
      dxz     :     0.002123
      dyz     :     0.000029
      dx2y2   :     0.004111
      dxy     :     0.005828

  4 C s       :     2.979665  s :     2.979665
      pz      :     1.113948  p :     2.767583
      px      :     0.816205
      py      :     0.837431
      dz2     :     0.004265  d :     0.050007
      dxz     :     0.005632
      dyz     :     0.006907
      dx2y2   :     0.020841
      dxy     :     0.012362

  5 C s       :     2.958515  s :     2.958515
      pz      :     0.919622  p :     2.832853
      px      :     0.881369
      py      :     1.031863
      dz2     :     0.004283  d :     0.061114
      dxz     :     0.015363
      dyz     :     0.007046
      dx2y2   :     0.019415
      dxy     :     0.015008

  6 C s       :     3.285975  s :     3.285975
      pz      :     0.923982  p :     2.707024
      px      :     0.901482
      py      :     0.881560
      dz2     :     0.002649  d :     0.035229
      dxz     :     0.006790
      dyz     :     0.003936
      dx2y2   :     0.009904
      dxy     :     0.011949

  7 C s       :     3.285939  s :     3.285939
      pz      :     0.923978  p :     2.707044
      px      :     0.901480
      py      :     0.881585
      dz2     :     0.002649  d :     0.035227
      dxz     :     0.006790
      dyz     :     0.003935
      dx2y2   :     0.009903
      dxy     :     0.011950

  8 C s       :     3.232740  s :     3.232740
      pz      :     1.062460  p :     2.770615
      px      :     0.880480
      py      :     0.827674
      dz2     :     0.002650  d :     0.032738
      dxz     :     0.004767
      dyz     :     0.003043
      dx2y2   :     0.009662
      dxy     :     0.012616

  9 C s       :     3.232752  s :     3.232752
      pz      :     1.062444  p :     2.770627
      px      :     0.880547
      py      :     0.827636
      dz2     :     0.002650  d :     0.032743
      dxz     :     0.004768
      dyz     :     0.003044
      dx2y2   :     0.009664
      dxy     :     0.012617

 10 H s       :     0.973674  s :     0.973674
      pz      :     0.004166  p :     0.023489
      px      :     0.006841
      py      :     0.012481

 11 H s       :     0.973679  s :     0.973679
      pz      :     0.004167  p :     0.023489
      px      :     0.006841
      py      :     0.012481

 12 H s       :     1.009315  s :     1.009315
      pz      :     0.005233  p :     0.023300
      px      :     0.005861
      py      :     0.012206

 13 H s       :     1.009338  s :     1.009338
      pz      :     0.005233  p :     0.023303
      px      :     0.005862
      py      :     0.012208

 14 H s       :     0.837728  s :     0.837728
      pz      :     0.013297  p :     0.044622
      px      :     0.011250
      py      :     0.020075

 15 H s       :     0.837755  s :     0.837755
      pz      :     0.013301  p :     0.044628
      px      :     0.011253
      py      :     0.020075



                     *******************************
                     * LOEWDIN POPULATION ANALYSIS *
                     *******************************

----------------------
LOEWDIN ATOMIC CHARGES
----------------------
   0 O :   -0.239387
   1 O :   -0.239384
   2 N :    0.291832
   3 N :   -0.020945
   4 C :   -0.061221
   5 C :    0.056166
   6 C :    0.017846
   7 C :    0.017859
   8 C :   -0.057823
   9 C :   -0.057826
  10 H :    0.041453
  11 H :    0.041448
  12 H :    0.027934
  13 H :    0.027929
  14 H :    0.077077
  15 H :    0.077043

-------------------------------
LOEWDIN REDUCED ORBITAL CHARGES
-------------------------------
  0 O s       :     3.645883  s :     3.645883
      pz      :     1.452172  p :     4.555233
      px      :     1.708420
      py      :     1.394641
      dz2     :     0.006001  d :     0.038271
      dxz     :     0.001992
      dyz     :     0.006084
      dx2y2   :     0.009079
      dxy     :     0.015115

  1 O s       :     3.645845  s :     3.645845
      pz      :     1.452161  p :     4.555262
      px      :     1.708469
      py      :     1.394633
      dz2     :     0.006002  d :     0.038277
      dxz     :     0.001992
      dyz     :     0.006085
      dx2y2   :     0.009082
      dxy     :     0.015115

  2 N s       :     3.059696  s :     3.059696
      pz      :     1.141456  p :     3.428285
      px      :     1.173880
      py      :     1.112949
      dz2     :     0.010992  d :     0.220188
      dxz     :     0.013967
      dyz     :     0.040467
      dx2y2   :     0.085854
      dxy     :     0.068907

  3 N s       :     3.030471  s :     3.030471
      pz      :     1.679687  p :     3.952834
      px      :     1.131068
      py      :     1.142079
      dz2     :     0.002670  d :     0.037640
      dxz     :     0.004011
      dyz     :     0.000032
      dx2y2   :     0.013226
      dxy     :     0.017700

  4 C s       :     2.845161  s :     2.845161
      pz      :     1.085552  p :     3.086370
      px      :     0.909855
      py      :     1.090963
      dz2     :     0.010547  d :     0.129690
      dxz     :     0.011460
      dyz     :     0.014089
      dx2y2   :     0.056188
      dxy     :     0.037406

  5 C s       :     2.838624  s :     2.838624
      pz      :     0.910684  p :     2.960252
      px      :     0.946466
      py      :     1.103102
      dz2     :     0.009341  d :     0.144957
      dxz     :     0.031241
      dyz     :     0.014622
      dx2y2   :     0.051011
      dxy     :     0.038743

  6 C s       :     2.862400  s :     2.862400
      pz      :     0.918335  p :     3.028656
      px      :     1.062594
      py      :     1.047727
      dz2     :     0.006302  d :     0.091098
      dxz     :     0.014296
      dyz     :     0.007778
      dx2y2   :     0.029518
      dxy     :     0.033205

  7 C s       :     2.862410  s :     2.862410
      pz      :     0.918335  p :     3.028639
      px      :     1.062589
      py      :     1.047716
      dz2     :     0.006301  d :     0.091092
      dxz     :     0.014296
      dyz     :     0.007776
      dx2y2   :     0.029513
      dxy     :     0.033206

  8 C s       :     2.853683  s :     2.853683
      pz      :     1.038911  p :     3.116681
      px      :     1.050942
      py      :     1.026827
      dz2     :     0.006465  d :     0.087458
      dxz     :     0.009773
      dyz     :     0.005618
      dx2y2   :     0.029685
      dxy     :     0.035917

  9 C s       :     2.853643  s :     2.853643
      pz      :     1.038887  p :     3.116706
      px      :     1.050954
      py      :     1.026866
      dz2     :     0.006466  d :     0.087476
      dxz     :     0.009775
      dyz     :     0.005622
      dx2y2   :     0.029695
      dxy     :     0.035918

 10 H s       :     0.887378  s :     0.887378
      pz      :     0.012850  p :     0.071169
      px      :     0.020696
      py      :     0.037622

 11 H s       :     0.887383  s :     0.887383
      pz      :     0.012850  p :     0.071169
      px      :     0.020696
      py      :     0.037622

 12 H s       :     0.903060  s :     0.903060
      pz      :     0.016288  p :     0.069006
      px      :     0.017503
      py      :     0.035215

 13 H s       :     0.903058  s :     0.903058
      pz      :     0.016290  p :     0.069014
      px      :     0.017504
      py      :     0.035219

 14 H s       :     0.799461  s :     0.799461
      pz      :     0.042276  p :     0.123462
      px      :     0.027995
      py      :     0.053191

 15 H s       :     0.799465  s :     0.799465
      pz      :     0.042290  p :     0.123491
      px      :     0.028004
      py      :     0.053197



                      *****************************
                      * MAYER POPULATION ANALYSIS *
                      *****************************

  NA   - Mulliken gross atomic population
  ZA   - Total nuclear charge
  QA   - Mulliken gross atomic charge
  VA   - Mayer's total valence
  BVA  - Mayer's bonded valence
  FA   - Mayer's free valence

  ATOM       NA         ZA         QA         VA         BVA        FA
  0 O      8.2685     8.0000    -0.2685     1.9307     1.9307     0.0000
  1 O      8.2685     8.0000    -0.2685     1.9307     1.9307     0.0000
  2 N      6.7604     7.0000     0.2396     3.9519     3.9519     0.0000
  3 N      7.0999     7.0000    -0.0999     3.2233     3.2233     0.0000
  4 C      5.7973     6.0000     0.2027     3.6883     3.6883    -0.0000
  5 C      5.8525     6.0000     0.1475     3.9864     3.9864    -0.0000
  6 C      6.0282     6.0000    -0.0282     3.8668     3.8668     0.0000
  7 C      6.0282     6.0000    -0.0282     3.8668     3.8668     0.0000
  8 C      6.0361     6.0000    -0.0361     3.7652     3.7652    -0.0000
  9 C      6.0361     6.0000    -0.0361     3.7652     3.7652    -0.0000
 10 H      0.9972     1.0000     0.0028     1.0171     1.0171     0.0000
 11 H      0.9972     1.0000     0.0028     1.0171     1.0171     0.0000
 12 H      1.0326     1.0000    -0.0326     0.9881     0.9881    -0.0000
 13 H      1.0326     1.0000    -0.0326     0.9881     0.9881    -0.0000
 14 H      0.8823     1.0000     0.1177     0.9991     0.9991    -0.0000
 15 H      0.8824     1.0000     0.1176     0.9991     0.9991    -0.0000

  Mayer bond orders larger than 0.100000
B(  0-O ,  1-O ) :   0.2757 B(  0-O ,  2-N ) :   1.4982 B(  1-O ,  2-N ) :   1.4982 
B(  2-N ,  4-C ) :   0.9255 B(  3-N ,  5-C ) :   1.2551 B(  3-N , 14-H ) :   0.9465 
B(  3-N , 15-H ) :   0.9466 B(  4-C ,  6-C ) :   1.3156 B(  4-C ,  7-C ) :   1.3156 
B(  5-C ,  8-C ) :   1.2845 B(  5-C ,  9-C ) :   1.2846 B(  6-C ,  8-C ) :   1.4025 
B(  6-C , 10-H ) :   0.9882 B(  7-C ,  9-C ) :   1.4025 B(  7-C , 11-H ) :   0.9882 
B(  8-C , 12-H ) :   0.9928 B(  9-C , 13-H ) :   0.9928 

Environment variable NBOEXE for nbo6.exe or nbo5.exe not set! Skipping NBO-Analysis

-------
TIMINGS
-------

Total SCF time: 0 days 0 hours 0 min 8 sec 

Total time                  ....       8.787 sec
Sum of individual times     ....       8.757 sec  ( 99.7%)

SCF preparation             ....       0.261 sec  (  3.0%)
Fock matrix formation       ....       8.364 sec  ( 95.2%)
  Startup                   ....       0.006 sec  (  0.1% of F)
  Split-RI-J                ....       0.712 sec  (  8.5% of F)
  Chain of spheres X        ....       6.079 sec  ( 72.7% of F)
  XC integration            ....       1.546 sec  ( 18.5% of F)
    Basis function eval.    ....       0.605 sec  ( 39.2% of XC)
    Density eval.           ....       0.250 sec  ( 16.2% of XC)
    XC-Functional eval.     ....       0.152 sec  (  9.8% of XC)
    XC-Potential eval.      ....       0.431 sec  ( 27.9% of XC)
Diagonalization             ....       0.000 sec  (  0.0%)
Density matrix formation    ....       0.014 sec  (  0.2%)
Total Energy calculation    ....       0.008 sec  (  0.1%)
Population analysis         ....       0.011 sec  (  0.1%)
Orbital Transformation      ....       0.013 sec  (  0.2%)
Orbital Orthonormalization  ....       0.000 sec  (  0.0%)
DIIS solution               ....       0.062 sec  (  0.7%)
SOSCF solution              ....       0.023 sec  (  0.3%)
Finished LeanSCF after   8.8 sec

Maximum memory used throughout the entire LEANSCF-calculation: 17.8 MB


-------------------------------------------------------------------------------
                          DFT DISPERSION CORRECTION                            
                                                                               
                              DFTD3 V3.1  Rev 1                                
                          USING Becke-Johnson damping                          
-------------------------------------------------------------------------------
The B3LYP functional is recognized
Active option DFTDOPT                   ...         4   

molecular C6(AA) [au] = 3080.822092 


            DFT-D V3
 parameters
 s6 scaling factor         :     1.0000 
 a1 scaling factor         :     0.3981 
 s8 scaling factor         :     1.9889 
 a2 scaling factor         :     4.4211 
 ad hoc parameters k1-k3   :    16.0000     1.3333    -4.0000 

 Edisp/kcal,au: -18.036163514742  -0.028742453041 
 E6   /kcal   :  -8.396715371 
 E8   /kcal   :  -9.639448144 
 % E8         :  53.445113957 

-------------------------   ----------------
Dispersion correction           -0.028742453
-------------------------   ----------------


-------------------------   --------------------
FINAL SINGLE POINT ENERGY      -491.509837869645
-------------------------   --------------------

--------------------------------------------------------------------------
By default, for Open MPI 4.0 and later, infiniband ports on a device
are not used by default.  The intent is to use UCX for these devices.
You can override this policy by setting the btl_openib_allow_ib MCA parameter
to true.

  Local host:              psid00
  Local adapter:           mlx5_0
  Local port:              1

--------------------------------------------------------------------------
--------------------------------------------------------------------------
WARNING: There was an error initializing an OpenFabrics device.

  Local host:   psid00
  Local device: mlx5_0
--------------------------------------------------------------------------


           ************************************************************
           *        Program running with 4 parallel MPI-processes     *
           *              working on a common directory               *
           ************************************************************
------------------------------------------------------------------------------
                         ORCA SCF GRADIENT CALCULATION
------------------------------------------------------------------------------

Nuc. rep. gradient        (SHARK) ... done (  0.0 sec)
HCore & Overlap gradient  (SHARK) ... done (  0.0 sec)
Split-RIJ-J gradient      (SHARK) ... done (  0.3 sec)
COSX-gradient                     ... [psid00:39425] 3 more processes have sent help message help-mpi-btl-openib.txt / ib port not selected
[psid00:39425] Set MCA parameter "orte_base_help_aggregate" to 0 to see all help / error messages
[psid00:39425] 3 more processes have sent help message help-mpi-btl-openib.txt / error in device init
done (  5.3 sec)
XC gradient                       ... done (  0.9 sec)
Dispersion correction             ... done (  0.0 sec)

-------------------
DISPERSION GRADIENT
-------------------

   1   O   :    0.000477900    0.000176125   -0.000000177
   2   O   :    0.000477905   -0.000176145    0.000000036
   3   N   :    0.000596597    0.000000000   -0.000000034
   4   N   :   -0.000600478   -0.000000039    0.000000009
   5   C   :    0.000428985   -0.000000003    0.000000183
   6   C   :   -0.000489795   -0.000000007   -0.000000139
   7   C   :    0.000086809    0.000549090    0.000000246
   8   C   :    0.000086791   -0.000549083    0.000000060
   9   C   :   -0.000215687    0.000521462    0.000000101
  10   C   :   -0.000215736   -0.000521413   -0.000000093
  11   H   :    0.000079591    0.000350011    0.000000150
  12   H   :    0.000079585   -0.000350022    0.000000009
  13   H   :   -0.000109902    0.000336979    0.000000065
  14   H   :   -0.000109908   -0.000336951   -0.000000077
  15   H   :   -0.000286338    0.000077470   -0.000000157
  16   H   :   -0.000286317   -0.000077473   -0.000000183

Difference to translation invariance:
           :    0.0000000000    0.0000000000    0.0000000000

Difference to rotation invariance:
           :    0.0000000000    0.0000000000    0.0000000000

Norm of the Dispersion gradient    ...    0.0018971260
RMS gradient                       ...    0.0002738265
MAX gradient                       ...    0.0006004781

------------------
CARTESIAN GRADIENT
------------------

   1   O   :    0.022422270    0.027847740   -0.000005147
   2   O   :    0.022379441   -0.027792205    0.000025339
   3   N   :   -0.060205794   -0.000042483   -0.000056364
   4   N   :   -0.033317471   -0.000102953    0.000009194
   5   C   :    0.009817253    0.000024794    0.000048496
   6   C   :    0.054426945   -0.000062888   -0.000079592
   7   C   :    0.014589103   -0.009307154    0.000017094
   8   C   :    0.014543432    0.009256952    0.000019275
   9   C   :   -0.018703507   -0.005079548   -0.000015186
  10   C   :   -0.018804052    0.005155095   -0.000000626
  11   H   :   -0.006315521    0.001702728    0.000000508
  12   H   :   -0.006309615   -0.001697029   -0.000003795
  13   H   :    0.002349815   -0.002508002    0.000007131
  14   H   :    0.002377146    0.002533675    0.000002357
  15   H   :    0.000362616    0.002989807    0.000016417
  16   H   :    0.000387940   -0.002918530    0.000014900

Difference to translation invariance:
           :    0.0000000001    0.0000000000    0.0000000000

Difference to rotation invariance:
           :    0.0000018752    0.0000003677    0.0000062751

Norm of the Cartesian gradient     ...    0.1087407429
RMS gradient                       ...    0.0156953743
MAX gradient                       ...    0.0602057938

-------
TIMINGS
-------

Total SCF gradient time     ....        6.599 sec

Densities                   ....       0.000 sec  (  0.0%)
One electron gradient       ....       0.039 sec  (  0.6%)
RI-J Coulomb gradient       ....       0.304 sec  (  4.6%)
COSX gradient               ....       5.290 sec  ( 80.2%)
XC gradient                 ....       0.919 sec  ( 13.9%)

Maximum memory used throughout the entire SCFGRAD-calculation: 29.9 MB
------------------------------------------------------------------------------
                         ORCA GEOMETRY RELAXATION STEP
------------------------------------------------------------------------------

Reading the OPT-File                    .... done
Getting information on internals        .... done
Copying old internal coords+grads       .... done
Making the new internal coordinates     .... (2022 redundants) done
Validating the new internal coordinates .... (2022 redundants) done
Calculating the B-matrix                .... done
Calculating the G,G- and P matrices     .... done
Transforming gradient to internals      .... done
Projecting the internal gradient        .... done
Number of atoms                         ....  16
Number of internal coordinates          ....  72
Current Energy                          ....  -491.509837870 Eh
Current gradient norm                   ....     0.108740743 Eh/bohr
Maximum allowed component of the step   ....  0.300
Current trust radius                    ....  0.300
Evaluating the initial hessian          ....  (Almloef) done
Projecting the Hessian                  .... done
Forming the augmented Hessian           .... done
Diagonalizing the augmented Hessian     .... done
Last element of RFO vector              ....  0.993850468
Lowest eigenvalues of augmented Hessian:
 -0.007406559  0.019877518  0.019877560  0.021368683  0.021370430
Length of the computed step             ....  0.111415668
The final length of the internal step   ....  0.111415668
Converting the step to Cartesian space:
 Initial RMS(Int)=    0.0131304624
Transforming coordinates:
 Iter   0:  RMS(Cart)=    0.0149900829 RMS(Int)=    1.0472243178
done
Storing new coordinates                 .... done

                                .--------------------.
          ----------------------|Geometry convergence|-------------------------
          Item                value                   Tolerance       Converged
          ---------------------------------------------------------------------
          RMS gradient        0.0081259745            0.0001000000      NO
          MAX gradient        0.0352257393            0.0003000000      NO
          RMS step            0.0131304624            0.0020000000      NO
          MAX step            0.0618438931            0.0040000000      NO
          ........................................................
          Max(Bonds)      0.0327      Max(Angles)    1.19
          Max(Dihed)        0.05      Max(Improp)    0.00
          ---------------------------------------------------------------------

The optimization has not yet converged - more geometry cycles are needed


    ---------------------------------------------------------------------------
                         Redundant Internal Coordinates
                            (Angstroem and degrees)

        Definition                    Value    dE/dq     Step     New-Value
    ----------------------------------------------------------------------------
     1. B(N   2,O   1)                1.2548  0.035156 -0.0224    1.2324   
     2. B(N   2,O   0)                1.2548  0.035226 -0.0224    1.2324   
     3. B(C   4,N   2)                1.4199 -0.015404  0.0160    1.4359   
     4. B(C   5,N   3)                1.4104  0.032567 -0.0327    1.3777   
     5. B(C   6,C   4)                1.3948 -0.005149  0.0042    1.3990   
     6. B(C   7,C   4)                1.3949 -0.005098  0.0041    1.3990   
     7. B(C   8,C   5)                1.3949 -0.014860  0.0129    1.4078   
     8. B(C   8,C   6)                1.3949  0.005462 -0.0047    1.3902   
     9. B(C   9,C   7)                1.3949  0.005458 -0.0047    1.3903   
    10. B(C   9,C   5)                1.3948 -0.014980  0.0130    1.4078   
    11. B(H  10,C   6)                1.0870 -0.001459  0.0021    1.0891   
    12. B(H  11,C   7)                1.0870 -0.001461  0.0021    1.0891   
    13. B(H  12,C   8)                1.0871 -0.003338  0.0048    1.0919   
    14. B(H  13,C   9)                1.0871 -0.003373  0.0048    1.0919   
    15. B(H  14,N   3)                1.0114  0.002407 -0.0029    1.0085   
    16. B(H  15,N   3)                1.0113  0.002332 -0.0028    1.0085   
    17. A(O   0,N   2,C   4)          118.99  0.004841   -0.60    118.39   
    18. A(O   1,N   2,C   4)          118.99  0.004820   -0.60    118.39   
    19. A(O   0,N   2,O   1)          122.02 -0.009661    1.19    123.22   
    20. A(C   5,N   3,H  15)          120.04 -0.001136    0.20    120.24   
    21. A(H  14,N   3,H  15)          119.93  0.002298   -0.40    119.53   
    22. A(C   5,N   3,H  14)          120.03 -0.001162    0.20    120.23   
    23. A(C   6,C   4,C   7)          120.01 -0.003340    0.37    120.38   
    24. A(N   2,C   4,C   7)          120.00  0.001677   -0.19    119.81   
    25. A(N   2,C   4,C   6)          120.00  0.001663   -0.18    119.81   
    26. A(N   3,C   5,C   8)          120.01 -0.002506    0.30    120.30   
    27. A(C   8,C   5,C   9)          120.00  0.005062   -0.60    119.40   
    28. A(N   3,C   5,C   9)          120.00 -0.002556    0.30    120.30   
    29. A(C   8,C   6,H  10)          117.97 -0.006823    1.10    119.07   
    30. A(C   4,C   6,H  10)          122.03  0.006275   -0.98    121.05   
    31. A(C   4,C   6,C   8)          120.00  0.000548   -0.11    119.88   
    32. A(C   4,C   7,C   9)          119.99  0.000557   -0.12    119.88   
    33. A(C   9,C   7,H  11)          117.98 -0.006819    1.10    119.08   
    34. A(C   4,C   7,H  11)          122.03  0.006263   -0.98    121.04   
    35. A(C   6,C   8,H  12)          119.33 -0.000134    0.02    119.35   
    36. A(C   5,C   8,H  12)          120.67  0.001551   -0.25    120.42   
    37. A(C   5,C   8,C   6)          120.00 -0.001417    0.23    120.23   
    38. A(C   5,C   9,C   7)          120.00 -0.001409    0.23    120.23   
    39. A(C   7,C   9,H  13)          119.32 -0.000150    0.02    119.34   
    40. A(C   5,C   9,H  13)          120.68  0.001559   -0.25    120.42   
    41. D(C   6,C   4,N   2,O   1)    179.98 -0.000011    0.03    180.01   
    42. D(C   7,C   4,N   2,O   0)    179.95  0.000005   -0.01    179.93   
    43. D(C   6,C   4,N   2,O   0)     -0.00  0.000019   -0.04     -0.04   
    44. D(C   7,C   4,N   2,O   1)     -0.07 -0.000025    0.05     -0.02   
    45. D(C   9,C   5,N   3,H  14)   -179.89 -0.000024    0.05   -179.85   
    46. D(C   8,C   5,N   3,H  14)      0.16 -0.000005    0.01      0.17   
    47. D(C   9,C   5,N   3,H  15)     -0.16  0.000005   -0.01     -0.17   
    48. D(C   8,C   5,N   3,H  15)    179.89  0.000023   -0.05    179.85   
    49. D(H  10,C   6,C   4,C   7)   -180.00 -0.000002    0.00   -180.00   
    50. D(H  10,C   6,C   4,N   2)     -0.05 -0.000013    0.02     -0.02   
    51. D(C   8,C   6,C   4,C   7)     -0.00 -0.000006    0.01      0.01   
    52. D(C   8,C   6,C   4,N   2)    179.95 -0.000018    0.03    179.98   
    53. D(C   9,C   7,C   4,C   6)      0.00  0.000006   -0.01     -0.00   
    54. D(C   9,C   7,C   4,N   2)   -179.95  0.000017   -0.03   -179.98   
    55. D(H  11,C   7,C   4,N   2)      0.04  0.000011   -0.02      0.02   
    56. D(H  11,C   7,C   4,C   6)    179.99 -0.000001    0.00    180.00   
    57. D(H  12,C   8,C   6,H  10)     -0.02 -0.000009    0.02     -0.01   
    58. D(C   5,C   8,C   6,H  10)    180.00 -0.000002    0.00    180.00   
    59. D(C   5,C   8,C   6,C   4)     -0.00  0.000002   -0.00     -0.00   
    60. D(H  12,C   8,C   5,C   9)   -179.98  0.000011   -0.02   -180.00   
    61. D(H  12,C   8,C   5,N   3)     -0.03 -0.000012    0.02     -0.01   
    62. D(H  12,C   8,C   6,C   4)    179.98 -0.000005    0.01    179.99   
    63. D(C   6,C   8,C   5,C   9)      0.00  0.000004   -0.01     -0.00   
    64. D(C   6,C   8,C   5,N   3)    179.95 -0.000019    0.03    179.98   
    65. D(C   5,C   9,C   7,H  11)   -179.99  0.000005   -0.01   -180.00   
    66. D(C   5,C   9,C   7,C   4)      0.00 -0.000000    0.00      0.00   
    67. D(H  13,C   9,C   5,C   8)    179.99 -0.000008    0.01    180.00   
    68. D(H  13,C   9,C   5,N   3)      0.05  0.000015   -0.03      0.02   
    69. D(C   7,C   9,C   5,C   8)     -0.00 -0.000005    0.01      0.00   
[...]
      pz      :     1.445771  p :     4.560782
      px      :     1.717276
      py      :     1.397734
      dz2     :     0.006439  d :     0.042074
      dxz     :     0.002074
      dyz     :     0.007065
      dx2y2   :     0.010611
      dxy     :     0.015885

  2 N s       :     3.049596  s :     3.049596
      pz      :     1.129773  p :     3.431598
      px      :     1.178765
      py      :     1.123060
      dz2     :     0.011853  d :     0.241914
      dxz     :     0.013064
      dyz     :     0.047340
      dx2y2   :     0.095104
      dxy     :     0.074553

  3 N s       :     3.014918  s :     3.014918
      pz      :     1.657995  p :     3.940253
      px      :     1.138344
      py      :     1.143914
      dz2     :     0.002846  d :     0.041774
      dxz     :     0.004949
      dyz     :     0.000036
      dx2y2   :     0.013873
      dxy     :     0.020071

  4 C s       :     2.857137  s :     2.857137
      pz      :     1.095302  p :     3.083092
      px      :     0.897116
      py      :     1.090674
      dz2     :     0.010006  d :     0.122200
      dxz     :     0.009564
      dyz     :     0.013887
      dx2y2   :     0.053553
      dxy     :     0.035190

  5 C s       :     2.836790  s :     2.836790
      pz      :     0.907676  p :     2.966411
      px      :     0.961993
      py      :     1.096743
      dz2     :     0.009590  d :     0.149037
      dxz     :     0.035516
      dyz     :     0.013269
      dx2y2   :     0.050577
      dxy     :     0.040085

  6 C s       :     2.862447  s :     2.862447
      pz      :     0.921583  p :     3.035714
      px      :     1.063346
      py      :     1.050785
      dz2     :     0.006340  d :     0.092010
      dxz     :     0.014902
      dyz     :     0.007798
      dx2y2   :     0.028290
      dxy     :     0.034681

  7 C s       :     2.862448  s :     2.862448
      pz      :     0.921580  p :     3.035712
      px      :     1.063346
      py      :     1.050786
      dz2     :     0.006340  d :     0.092010
      dxz     :     0.014901
      dyz     :     0.007798
      dx2y2   :     0.028290
      dxy     :     0.034681

  8 C s       :     2.856968  s :     2.856968
      pz      :     1.050779  p :     3.121141
      px      :     1.050726
      py      :     1.019636
      dz2     :     0.006355  d :     0.086107
      dxz     :     0.009955
      dyz     :     0.005032
      dx2y2   :     0.028558
      dxy     :     0.036206

  9 C s       :     2.856968  s :     2.856968
      pz      :     1.050779  p :     3.121140
      px      :     1.050725
      py      :     1.019636
      dz2     :     0.006355  d :     0.086107
      dxz     :     0.009955
      dyz     :     0.005032
      dx2y2   :     0.028558
      dxy     :     0.036207

 10 H s       :     0.888081  s :     0.888081
      pz      :     0.012686  p :     0.071270
      px      :     0.022931
      py      :     0.035652

 11 H s       :     0.888081  s :     0.888081
      pz      :     0.012686  p :     0.071270
      px      :     0.022931
      py      :     0.035652

 12 H s       :     0.905772  s :     0.905772
      pz      :     0.016247  p :     0.068159
      px      :     0.017196
      py      :     0.034716

 13 H s       :     0.905772  s :     0.905772
      pz      :     0.016247  p :     0.068158
      px      :     0.017196
      py      :     0.034716

 14 H s       :     0.797931  s :     0.797931
      pz      :     0.041892  p :     0.123189
      px      :     0.028576
      py      :     0.052721

 15 H s       :     0.797931  s :     0.797931
      pz      :     0.041892  p :     0.123189
      px      :     0.028576
      py      :     0.052720



                      *****************************
                      * MAYER POPULATION ANALYSIS *
                      *****************************

  NA   - Mulliken gross atomic population
  ZA   - Total nuclear charge
  QA   - Mulliken gross atomic charge
  VA   - Mayer's total valence
  BVA  - Mayer's bonded valence
  FA   - Mayer's free valence

  ATOM       NA         ZA         QA         VA         BVA        FA
  0 O      8.2589     8.0000    -0.2589     1.9475     1.9475    -0.0000
  1 O      8.2588     8.0000    -0.2588     1.9475     1.9475    -0.0000
  2 N      6.7641     7.0000     0.2359     3.9851     3.9851     0.0000
  3 N      7.0548     7.0000    -0.0548     3.2576     3.2576    -0.0000
  4 C      5.8383     6.0000     0.1617     3.7539     3.7539     0.0000
  5 C      5.8946     6.0000     0.1054     4.0091     4.0091    -0.0000
  6 C      6.0188     6.0000    -0.0188     3.8573     3.8573     0.0000
  7 C      6.0188     6.0000    -0.0188     3.8573     3.8573    -0.0000
  8 C      6.0330     6.0000    -0.0330     3.7483     3.7483     0.0000
  9 C      6.0330     6.0000    -0.0330     3.7483     3.7483     0.0000
 10 H      0.9971     1.0000     0.0029     1.0188     1.0188     0.0000
 11 H      0.9971     1.0000     0.0029     1.0188     1.0188    -0.0000
 12 H      1.0330     1.0000    -0.0330     0.9882     0.9882     0.0000
 13 H      1.0330     1.0000    -0.0330     0.9882     0.9882     0.0000
 14 H      0.8835     1.0000     0.1165     1.0002     1.0002     0.0000
 15 H      0.8835     1.0000     0.1165     1.0002     1.0002    -0.0000

  Mayer bond orders larger than 0.100000
B(  0-O ,  1-O ) :   0.2646 B(  0-O ,  2-N ) :   1.5315 B(  1-O ,  2-N ) :   1.5315 
B(  2-N ,  4-C ) :   0.8903 B(  3-N ,  5-C ) :   1.2931 B(  3-N , 14-H ) :   0.9460 
B(  3-N , 15-H ) :   0.9460 B(  4-C ,  6-C ) :   1.3431 B(  4-C ,  7-C ) :   1.3432 
B(  5-C ,  8-C ) :   1.2735 B(  5-C ,  9-C ) :   1.2735 B(  6-C ,  8-C ) :   1.3952 
B(  6-C , 10-H ) :   0.9809 B(  7-C ,  9-C ) :   1.3952 B(  7-C , 11-H ) :   0.9810 
B(  8-C , 12-H ) :   0.9874 B(  9-C , 13-H ) :   0.9874 

Environment variable NBOEXE for nbo6.exe or nbo5.exe not set! Skipping NBO-Analysis

-------
TIMINGS
-------

Total SCF time: 0 days 0 hours 0 min 4 sec 

Total time                  ....       4.473 sec
Sum of individual times     ....       4.447 sec  ( 99.4%)

SCF preparation             ....       0.248 sec  (  5.5%)
Fock matrix formation       ....       4.135 sec  ( 92.4%)
  Startup                   ....       0.002 sec  (  0.1% of F)
  Split-RI-J                ....       0.215 sec  (  5.2% of F)
  Chain of spheres X        ....       3.381 sec  ( 81.8% of F)
  XC integration            ....       0.530 sec  ( 12.8% of F)
    Basis function eval.    ....       0.201 sec  ( 38.0% of XC)
    Density eval.           ....       0.091 sec  ( 17.2% of XC)
    XC-Functional eval.     ....       0.050 sec  (  9.5% of XC)
    XC-Potential eval.      ....       0.151 sec  ( 28.5% of XC)
Diagonalization             ....       0.000 sec  (  0.0%)
Density matrix formation    ....       0.003 sec  (  0.1%)
Total Energy calculation    ....       0.003 sec  (  0.1%)
Population analysis         ....       0.031 sec  (  0.7%)
Orbital Transformation      ....       0.007 sec  (  0.2%)
Orbital Orthonormalization  ....       0.000 sec  (  0.0%)
DIIS solution               ....       0.007 sec  (  0.2%)
SOSCF solution              ....       0.013 sec  (  0.3%)
Finished LeanSCF after   4.5 sec

Maximum memory used throughout the entire LEANSCF-calculation: 18.7 MB
[psid00:40302] 3 more processes have sent help message help-mpi-btl-openib.txt / ib port not selected
[psid00:40302] Set MCA parameter "orte_base_help_aggregate" to 0 to see all help / error messages
[psid00:40302] 3 more processes have sent help message help-mpi-btl-openib.txt / error in device init


-------------------------------------------------------------------------------
                          DFT DISPERSION CORRECTION                            
                                                                               
                              DFTD3 V3.1  Rev 1                                
                          USING Becke-Johnson damping                          
-------------------------------------------------------------------------------
The B3LYP functional is recognized
Active option DFTDOPT                   ...         4   

molecular C6(AA) [au] = 3082.479488 


            DFT-D V3
 parameters
 s6 scaling factor         :     1.0000 
 a1 scaling factor         :     0.3981 
 s8 scaling factor         :     1.9889 
 a2 scaling factor         :     4.4211 
 ad hoc parameters k1-k3   :    16.0000     1.3333    -4.0000 

 Edisp/kcal,au: -18.042295285061  -0.028752224638 
 E6   /kcal   :  -8.400343914 
 E8   /kcal   :  -9.641951371 
 % E8         :  53.440824566 

-------------------------   ----------------
Dispersion correction           -0.028752225
-------------------------   ----------------


-------------------------   --------------------
FINAL SINGLE POINT ENERGY      -491.516071925061
-------------------------   --------------------

                                *** OPTIMIZATION RUN DONE ***

--------------------------------------------------------------------------
By default, for Open MPI 4.0 and later, infiniband ports on a device
are not used by default.  The intent is to use UCX for these devices.
You can override this policy by setting the btl_openib_allow_ib MCA parameter
to true.

  Local host:              psid00
  Local adapter:           mlx5_0
  Local port:              1

--------------------------------------------------------------------------
--------------------------------------------------------------------------
WARNING: There was an error initializing an OpenFabrics device.

  Local host:   psid00
  Local device: mlx5_0
--------------------------------------------------------------------------


           ************************************************************
           *        Program running with 4 parallel MPI-processes     *
           *              working on a common directory               *
           ************************************************************

------------------------------------------------------------------------------
                              ORCA PROPERTY CALCULATIONS
------------------------------------------------------------------------------

GBWName                                 ... 4nitroaniline_2.gbw
Number of atoms                         ...     16
Number of basis functions               ...    170
Max core memory                         ...   1024 MB

Electric properties:
Dipole moment                           ... YES
Quadrupole moment                       ...  NO
Static polarizability (Dipole/Dipole)   ...  NO
Static polarizability (Dipole/Quad.)    ...  NO
Static polarizability (Quad./Quad.)     ...  NO
Static polarizability (Velocity)        ...  NO

Atomic electric properties:
Dipole moment                           ...  NO
Quadrupole moment                       ...  NO
Static polarizability                   ...  NO

Choice of electric origin               ... Center of mass
Position of electric origin             ...     0.101114    -0.000004     0.000274

General magnetic properties:
Magnetizability                         ...  NO

EPR properties:
g-Tensor (aka g-matrix)                 ...  NO
Zero-Field splitting spin-orbit         ...  NO
Zero-field splitting spin-spin          ...  NO
Hyperfine couplings                     ...  NO (   0 nuclei)
Quadrupole couplings                    ...  NO (   0 nuclei)
Contact density                         ...  NO (   0 nuclei)

NMR properties:
Chemical shifts                         ...  NO (   0 nuclei)
Spin-rotation constants                 ...  NO (   0 nuclei)
Spin-spin couplings                     ...  NO (   0 nuclei,    0 pairs)

Choice of magnetic origin               ... GIAO
Position of magnetic origin             ...     0.000000     0.000000     0.000000

Properties with geometric perturbations:
SCF Hessian                             ...  NO
IR spectrum                             ...  NO
VCD spectrum                            ...  NO
X-ray spectroscopy properties:
SCF XES/XAS/RIXS spectra                ...  NO


-------------
DIPOLE MOMENT
-------------

Method             : SCF
Type of density    : Electron Density
Multiplicity       :   1
Irrep              :   0
Energy             :  -491.4873197004231429 Eh
Relativity type    : 
Basis              : AO
                                X                 Y                 Z
Electronic contribution:      7.310756550      -0.000195259       0.001143075
Nuclear contribution   :    -10.276355408       0.000035220      -0.005809502
                        -----------------------------------------
Total Dipole Moment    :     -2.965598858      -0.000160039      -0.004666428
                        -----------------------------------------
Magnitude (a.u.)       :      2.965602534
Magnitude (Debye)      :      7.537962590



--------------------
Rotational spectrum 
--------------------
 
Rotational constants in cm-1:             0.130823             0.027363             0.022630 
Rotational constants in MHz :          3921.967171           820.332888           678.430071 

Dipole components along the rotational axes: 
x,y,z [a.u.] :     2.965598    -0.000170    -0.005104 
x,y,z [Debye]:     7.537951    -0.000432    -0.012972 

 

Dipole moment calculation done in   0.0 sec 

Maximum memory used throughout the entire PROP-calculation: 9.1 MB
[psid00:40322] 3 more processes have sent help message help-mpi-btl-openib.txt / ib port not selected
[psid00:40322] Set MCA parameter "orte_base_help_aggregate" to 0 to see all help / error messages
[psid00:40322] 3 more processes have sent help message help-mpi-btl-openib.txt / error in device init
--------------------------------------------------------------------------
By default, for Open MPI 4.0 and later, infiniband ports on a device
are not used by default.  The intent is to use UCX for these devices.
You can override this policy by setting the btl_openib_allow_ib MCA parameter
to true.

  Local host:              psid00
  Local adapter:           mlx5_0
  Local port:              1

--------------------------------------------------------------------------
--------------------------------------------------------------------------
WARNING: There was an error initializing an OpenFabrics device.

  Local host:   psid00
  Local device: mlx5_0
--------------------------------------------------------------------------
[psid00:40339] 3 more processes have sent help message help-mpi-btl-openib.txt / ib port not selected
[psid00:40339] Set MCA parameter "orte_base_help_aggregate" to 0 to see all help / error messages
[psid00:40339] 3 more processes have sent help message help-mpi-btl-openib.txt / error in device init

--------------------------------
SUGGESTED CITATIONS FOR THIS RUN
--------------------------------

Below you find a list of papers that are relevant to this ORCA run
We neither can nor want to force you to cite these papers, but we appreciate if you do
You receive ORCA, which is the product of decades of hard work by many enthusiastic individuals, for free
The only thing we kindly ask in return is that you cite our papers,
We deeply appreciate it, if you show your appreciation for ORCA by not just citing the generic ORCA reference.

Please note that relegating all ORCA citations to the supporting information does *not* help us.
SI sections are not indexed - citations you put there will not count into any citation statistics
But we need these citations in order to attract the funding resources that allow us to do what we are doing

Therefore, if you are a happy ORCA user, please consider citing a few of the papers listed below in the main body of your paper

In addition to the list printed below, the program has created the file 4nitroaniline_2.bibtex that contains the list in bibtex format
You can import this file easily into all common literature databanks and citation aid programs


List of essential papers. We consider these as the minimum necessary citations

  1. Neese,F.
     Software update: the ORCA program system, version 5.0
     WIRES Comput. Molec. Sci., 2022 12(1)e1606
     doi.org/10.1002/wcms.1606

List of papers to cite with high priority. The work reported in these papers was absolutely
necessary for this run to complete.
Our perspective: the developers of density functionals and basis sets usually get cited in chemistry papers
Good! But without the algorithms to do something with them, the functionals or basis sets would not do anything.
Hence, in our opinion, the algorithm design and method developments papers are equally worthy of getting cited

  1. Neese,F.
     An improvement of the resolution of the identity approximation for the formation of the Coulomb matrix
     J. Comp. Chem., 2003 24(14)1740-1747
     doi.org/10.1002/jcc.10318
  2. Neese,F.; Wennmohs,F.; Hansen,A.; Becker,U.
     Efficient, approximate and parallel Hartree-Fock and hybrid DFT calculations. A 'chain-of-spheres' algorithm for the Hartree-Fock exchange
     Chem. Phys., 2009 356(1-3)98-109
     doi.org/10.1016/j.chemphys.2008.10.036
  3. Helmich-Paris,B.; de Souza,B.; Neese,F.; Izsák,R.
     An improved chain of spheres for exchange algorithm
     J. Chem. Phys., 2021 155 104109
     doi.org/doi: 10.1063/5.0058766.
  4. Neese,F.
     The SHARK Integral Generation and Digestion System
     J. Comp. Chem., 2022  1-16
     doi.org/10.1002/jcc.26942
  5. Grimme,S.; Antony,J.; Ehrlich,S.; Krieg,H.
     A consistent and accurate ab initio parametrization of density functional dispersion correction (DFT-D) for the 94 elements H-Pu
     J. Chem. Phys., 2010 132 154104
     doi.org/10.1063/1.3382344
  6. Grimme,S.; Ehrlich,S.; Goerigk,L.
     Effect of the damping function in dispersion corrected density functional theory
     J. Comput. Chem., 2011 32(7)1456-1465
     doi.org/10.1002/jcc.21759

List of suggested additional citations. These are papers that are important in the 'surrounding' of 
of this run, or papers that preceded the highly important papers. If you like your results we are grateful for a citation.

  1. Izsak,R.; Neese,F.
     An overlap fitted chain of spheres exchange method
     J. Chem. Phys., 2011 135 144105
     doi.org/10.1063/1.3646921
  2. Izsak,R.; Hansen,A.; Neese,F.
     The resolution of identity and chain of spheres approximations for the LPNO-CCSD singles Fock term
     Molec. Phys., 2012 110 2413-2417
     doi.org/10.1080/00268976.2012.687466
  3. Neese,F.
     The ORCA program system
     WIRES Comput. Molec. Sci., 2012 2(1)73-78
     doi.org/10.1002/wcms.81
  4. Izsak,R.; Neese,F.; Klopper,W.
     Robust fitting techniques in the chain of spheres approximation to the Fock exchange: The role of the complementary space
     J. Chem. Phys., 2013 139 
     doi.org/10.1063/1.4819264
  5. Neese,F.
     Software update: the ORCA program system, version 4.0
     WIRES Comput. Molec. Sci., 2018 8(1)1-6
     doi.org/10.1002/wcms.1327
  6. Neese,F.; Wennmohs,F.; Becker,U.; Riplinger,C.
     The ORCA quantum chemistry program package
     J. Chem. Phys., 2020 152 Art. No. L224108
     doi.org/10.1063/5.0004608

List of optional additional citations

  1. Neese,F.
     Approximate second-order SCF convergence for spin unrestricted wavefunctions
     Chem. Phys. Lett., 2000 325(1-3)93-98
     doi.org/10.1016/s0009-2614(00)00662-x

Timings for individual modules:

Sum of individual times          ...      147.670 sec (=   2.461 min)
Startup calculation              ...       10.946 sec (=   0.182 min)   7.4 %
SCF iterations                   ...       79.621 sec (=   1.327 min)  53.9 %
Property calculations            ...        0.533 sec (=   0.009 min)   0.4 %
SCF Gradient evaluation          ...       56.491 sec (=   0.942 min)  38.3 %
Geometry relaxation              ...        0.080 sec (=   0.001 min)   0.1 %
                             ****ORCA TERMINATED NORMALLY****
TOTAL RUN TIME: 0 days 0 hours 2 minutes 31 seconds 122 msec
