LAMMPS data file via write_data, version 2 Aug 2023, timestep = 200014, units = real

40 atoms
4 atom types

-15 15 xlo xhi
-15 15 ylo yhi
-15 15 zlo zhi

Masses

1 15.9994
2 1.00794
3 15.9994
4 15.9994

Atoms # charge

40 4 -0.2057831688232476 1.9304491093113316 4.151133875609516 -3.944160400066056 0 0 0
39 4 -0.1686095488738575 0.951623556625804 4.707526199029447 -3.5468317124804494 0 0 0
37 2 0.1324325806952477 4.608969 -3.8286 1.439678 0 0 0
2 3 -0.6488925185394807 -4.093572 -1.399029 1.232661 0 0 0
12 1 -0.197239640809365 -3.716933 -0.800485 -1.469755 0 0 0
17 1 -0.05714715168426907 -4.63815 0.394721 -1.456949 0 0 0
19 1 -0.231433167777882 -5.920806 0.372055 -1.088332 0 0 0
24 2 0.1167253600352692 -3.266383 -0.903905 -2.471505 0 0 0
25 2 0.1718878475444848 -4.296793 -1.713952 -1.267466 0 0 0
31 2 0.1354365105373996 -4.175928 1.346007 -1.750676 0 0 0
34 2 0.3132406400012037 -4.133634 -1.554311 2.185145 0 0 0
35 2 0.1317163782961614 -6.532081 1.279261 -1.08624 0 0 0
36 2 0.1600301921669249 -6.402135 -0.556626 -0.765117 0 0 0
1 3 -0.6342214526824883 0.17169 2.057246 -1.802725 0 0 0
3 1 -0.03163976928177721 1.050346 0.444506 -0.274697 0 0 0
4 1 0.04997037713195327 -0.305395 -0.008963 0.123537 0 0 0
5 1 0.0001309102746304951 -2.604705 -0.656007 -0.45342 0 0 0
6 1 -0.1111257702794071 -1.339462 -0.192201 -0.812935 0 0 0
8 1 -0.1355512637587682 2.187003 -0.132062 0.311259 0 0 0
9 1 0.2658212692443283 1.257724 1.472379 -1.224712 0 0 0
10 1 -0.1109120891829577 -0.586309 -0.30619 1.466332 0 0 0
11 1 0.2663784087142541 -2.854163 -0.945741 0.902383 0 0 0
15 1 -0.1622748564203237 -1.842972 -0.770883 1.852322 0 0 0
16 1 -0.1493744132708392 2.556443 1.878716 -1.546186 0 0 0
21 2 0.1753665422966725 -1.148607 0.030136 -1.86322 0 0 0
22 2 0.1295244701781406 2.04281 -0.949452 1.021547 0 0 0
23 2 0.1206565254317537 0.182952 -0.156 2.226689 0 0 0
29 2 0.1276123651343146 -2.046613 -0.992006 2.905191 0 0 0
30 2 0.1925609164890615 2.698269 2.677347 -2.281971 0 0 0
33 2 0.382148718508996 0.470608 2.763201 -2.390447 0 0 0
7 1 0.0292215358321252 3.494118 0.268234 0.005916 0 0 0
13 1 -0.2353174629007994 4.679642 -0.392949 0.686038 0 0 0
14 1 -0.1181931763717699 3.66369 1.284465 -0.938877 0 0 0
18 1 -0.07467697097217284 4.666704 -1.892876 0.565789 0 0 0
20 1 -0.2533219166712246 4.6241 -2.745812 1.592897 0 0 0
26 2 0.122237923891432 5.607406 0.003244 0.237321 0 0 0
27 2 0.1294802603141394 4.705088 -0.115308 1.754873 0 0 0
28 2 0.1199704445826911 4.669291 1.619038 -1.208331 0 0 0
32 2 0.1228418037493102 4.673208 -2.284922 -0.459296 0 0 0
38 2 0.1303223572501364 4.60538 -2.389875 2.628982 0 0 0

Velocities

40 -0.00012161972126124854 -0.0006097134970082648 1.9335149250577717e-05
39 0.002317812579158117 0.004021555615794019 0.0015408717946592306
37 0 0 0
2 0 0 0
12 0 0 0
17 0 0 0
19 0 0 0
24 0 0 0
25 0 0 0
31 0 0 0
34 0 0 0
35 0 0 0
36 0 0 0
1 0 0 0
3 0 0 0
4 0 0 0
5 0 0 0
6 0 0 0
8 0 0 0
9 0 0 0
10 0 0 0
11 0 0 0
15 0 0 0
16 0 0 0
21 0 0 0
22 0 0 0
23 0 0 0
29 0 0 0
30 0 0 0
33 0 0 0
7 0 0 0
13 0 0 0
14 0 0 0
18 0 0 0
20 0 0 0
26 0 0 0
27 0 0 0
28 0 0 0
32 0 0 0
38 0 0 0
