LAMMPS data file via write_data, version 2 Aug 2023, timestep = 200020, units = real

40 atoms
4 atom types

-15 15 xlo xhi
-15 15 ylo yhi
-15 15 zlo zhi

Masses

1 15.9994
2 1.00794
3 15.9994
4 15.9994

Atoms # charge

37 2 0.1318436837128732 4.608969 -3.8286 1.439678 0 0 0
2 3 -0.6323366156806693 -4.093572 -1.399029 1.232661 0 0 0
12 1 -0.1996952814434949 -3.716933 -0.800485 -1.469755 0 0 0
17 1 -0.05780689320884039 -4.63815 0.394721 -1.456949 0 0 0
19 1 -0.2334455878388563 -5.920806 0.372055 -1.088332 0 0 0
24 2 0.1163514973447337 -3.266383 -0.903905 -2.471505 0 0 0
25 2 0.1701436993492715 -4.296793 -1.713952 -1.267466 0 0 0
31 2 0.1326513340353622 -4.175928 1.346007 -1.750676 0 0 0
34 2 0.384832896404871 -4.133634 -1.554311 2.185145 0 0 0
35 2 0.1310086377223999 -6.532081 1.279261 -1.08624 0 0 0
36 2 0.1602030702693505 -6.402135 -0.556626 -0.765117 0 0 0
1 3 -0.6529008334457737 0.17169 2.057246 -1.802725 0 0 0
3 1 -0.03057970992960611 1.050346 0.444506 -0.274697 0 0 0
4 1 0.04929570510409023 -0.305395 -0.008963 0.123537 0 0 0
5 1 -0.001523690461402515 -2.604705 -0.656007 -0.45342 0 0 0
6 1 -0.1114760762831757 -1.339462 -0.192201 -0.812935 0 0 0
8 1 -0.1341102501229237 2.187003 -0.132062 0.311259 0 0 0
9 1 0.2680131833643729 1.257724 1.472379 -1.224712 0 0 0
10 1 -0.111492464901853 -0.586309 -0.30619 1.466332 0 0 0
11 1 0.2653331272054153 -2.854163 -0.945741 0.902383 0 0 0
15 1 -0.1500388158572125 -1.842972 -0.770883 1.852322 0 0 0
16 1 -0.1598288307310442 2.556443 1.878716 -1.546186 0 0 0
21 2 0.1733679908153275 -1.148607 0.030136 -1.86322 0 0 0
22 2 0.1296956177668283 2.04281 -0.949452 1.021547 0 0 0
23 2 0.1261533117773482 0.182952 -0.156 2.226689 0 0 0
29 2 0.1904443158271166 -2.046613 -0.992006 2.905191 0 0 0
30 2 0.1287868841251015 2.698269 2.677347 -2.281971 0 0 0
33 2 0.3116412880047018 0.470608 2.763201 -2.390447 0 0 0
7 1 0.03381797011687974 3.494118 0.268234 0.005916 0 0 0
13 1 -0.2327922366501775 4.679642 -0.392949 0.686038 0 0 0
14 1 -0.1149379609979845 3.66369 1.284465 -0.938877 0 0 0
18 1 -0.07394491641412099 4.666704 -1.892876 0.565789 0 0 0
20 1 -0.2556004370553145 4.6241 -2.745812 1.592897 0 0 0
26 2 0.1244642184025669 5.607406 0.003244 0.237321 0 0 0
27 2 0.1297089034270921 4.705088 -0.115308 1.754873 0 0 0
28 2 0.1150411905830842 4.669291 1.619038 -1.208331 0 0 0
32 2 0.1244475387062956 4.673208 -2.284922 -0.459296 0 0 0
38 2 0.1291866318258604 4.60538 -2.389875 2.628982 0 0 0
40 4 -0.1616156712816284 -4.475432806842678 -2.064534313082836 4.419325786853401 0 0 0
39 4 -0.2123064235868652 -3.2869088813535456 -2.151490406777051 4.481806511402266 0 0 0

Velocities

37 0 0 0
2 0 0 0
12 0 0 0
17 0 0 0
19 0 0 0
24 0 0 0
25 0 0 0
31 0 0 0
34 0 0 0
35 0 0 0
36 0 0 0
1 0 0 0
3 0 0 0
4 0 0 0
5 0 0 0
6 0 0 0
8 0 0 0
9 0 0 0
10 0 0 0
11 0 0 0
15 0 0 0
16 0 0 0
21 0 0 0
22 0 0 0
23 0 0 0
29 0 0 0
30 0 0 0
33 0 0 0
7 0 0 0
13 0 0 0
14 0 0 0
18 0 0 0
20 0 0 0
26 0 0 0
27 0 0 0
28 0 0 0
32 0 0 0
38 0 0 0
40 -0.0016983339967787472 0.00023648225457246252 -0.00021123120449971755
39 -0.001394079749509995 0.0008088389935913083 -0.0023550253300851295
