
                                 *****************
                                 * O   R   C   A *
                                 *****************

                                            #,                                       
                                            ###                                      
                                            ####                                     
                                            #####                                    
                                            ######                                   
                                           ########,                                 
                                     ,,################,,,,,                         
                               ,,#################################,,                 
                          ,,##########################################,,             
                       ,#########################################, ''#####,          
                    ,#############################################,,   '####,        
                  ,##################################################,,,,####,       
                ,###########''''           ''''###############################       
              ,#####''   ,,,,##########,,,,          '''####'''          '####       
            ,##' ,,,,###########################,,,                        '##       
           ' ,,###''''                  '''############,,,                           
         ,,##''                                '''############,,,,        ,,,,,,###''
      ,#''                                            '''#######################'''  
     '                                                          ''''####''''         
             ,#######,   #######,   ,#######,      ##                                
            ,#'     '#,  ##    ##  ,#'     '#,    #''#        ,####,   ,####,        
            ##       ##  ##   ,#'  ##            #'  '#       #'       #'  '#        
            ##       ##  #######   ##           ,######,      #####,   #    #        
            '#,     ,#'  ##    ##  '#,     ,#' ,#      #,     #,   #   #,  ,#        
             '#######'   ##     ##  '#######'  #'      '#     '####' # '####'        



                #########################################################
                #                        -***-                          #
                #          Department of theory and spectroscopy        #
                #                                                       #
                #                      Frank Neese                      #
                #                                                       #
                #     Directorship, Architecture, Infrastructure        #
                #                    SHARK, DRIVERS                     #
                #        Core code/Algorithms in most modules           #
                #                                                       #
                #        Max Planck Institute fuer Kohlenforschung      #
                #                Kaiser Wilhelm Platz 1                 #
                #                 D-45470 Muelheim/Ruhr                 #
                #                      Germany                          #
                #                                                       #
                #                  All rights reserved                  #
                #                        -***-                          #
                #########################################################


                         Program Version 6.0.1  -  RELEASE   -


 With contributions from (in alphabetic order):
[Max-Planck-Institut fuer Kohlenforschung]                               
  Daniel Aravena         : Magnetic Suceptibility                        
  Michael Atanasov       : Ab Initio Ligand Field Theory (pilot matlab implementation)
  Alexander A. Auer      : GIAO ZORA, VPT2 properties, NMR spectrum      
  Ute Becker             : All parallelization in ORCA, NUMFREQ, NUMCALC 
  Giovanni Bistoni       : ED, misc. LED, open-shell LED, HFLD           
  Martin Brehm           : Molecular dynamics                            
  Dmytro Bykov           : pre 5.0 version of the SCF Hessian            
  Marcos Casanova-Páez   : Triplet and SCS-CIS(D). UHF-(DLPNO)-IP/EA/STEOM-CCSD. UHF-CVS-IP/STEOM-CCSD   
  Vijay G. Chilkuri      : MRCI spin determinant printing, contributions to CSF-ICE 
  Pauline Colinet        : FMM embedding                                 
  Dipayan Datta          : RHF DLPNO-CCSD density                        
  Achintya Kumar Dutta   : EOM-CC, STEOM-CC                              
  Nicolas Foglia         : Exact transition moments, OPA infrastructure, MCD improvements    
  Dmitry Ganyushin       : Spin-Orbit,Spin-Spin,Magnetic field MRCI      
  Miquel Garcia-Rates    : C-PCM and meta-GGA Hessian, CCSD/C-PCM, Gaussian charge scheme 
  Tiago L. C. Gouveia    : GS-ROHF, GS-ROCIS                             
  Yang Guo               : DLPNO-NEVPT2, F12-NEVPT2, CIM, IAO-localization        
  Andreas Hansen         : Spin unrestricted coupled pair/coupled cluster methods 
  Ingolf Harden          : AUTO-CI MPn and infrastructure                
  Benjamin Helmich-Paris : MC-RPA, TRAH-(SCF,CASSCF), AVAS, COSX integrals, SCF dyn. polar. 
  Lee Huntington         : MR-EOM, pCC                                   
  Robert Izsak           : Overlap fitted RIJCOSX, COSX-SCS-MP3, EOM     
  Riya Kayal             : Wick's Theorem for AUTO-CI, AUTO-CI UHF-CCSDT 
  Emily Kempfer          : AUTO-CI, RHF CISDT and CCSDT                  
  Christian Kollmar      : KDIIS, OOCD, Brueckner-CCSD(T), CCSD density, CASPT2, CASPT2-K, improved NEVPT2 
  Axel Koslowski         : Symmetry handling                             
  Simone Kossmann        : meta-GGA functionals, TD-DFT gradient, OOMP2, (MP2 Hessian; deprecated post 5.0) 
  Lucas Lang             : DCDCAS                                        
  Marvin Lechner         : AUTO-CI (C++ implementation), FIC-MRCC        
  Spencer Leger          : CASSCF response                               
  Dagmar Lenk            : GEPOL surface, SMD, ORCA-2-JSON               
  Dimitrios Liakos       : Extrapolation schemes; Compound Job, initial MDCI parallelization 
  Dimitrios Manganas     : Further ROCIS development; embedding schemes. LFT, Crystal Embedding 
  Dimitrios Pantazis     : SARC Basis sets                               
  Anastasios Papadopoulos: AUTO-CI, single reference methods and gradients 
  Taras Petrenko         : pre 6.0 DFT Hessian and TD-DFT gradient, (ASA, deprecated), ECA, 1-Electron XAS/XES, NRVS 
  Peter Pinski           : DLPNO-MP2, DLPNO-MP2 Gradient                 
  Christoph Reimann      : Effective Core Potentials                     
  Marius Retegan         : Local ZFS, SOC                                
  Christoph Riplinger    : Optimizer, TS searches, QM/MM, DLPNO-CCSD(T), (RO)-DLPNO pert. Triples 
  Michael Roemelt        : Original ROCIS implementation                 
  Masaaki Saitow         : Open-shell DLPNO-CCSD energy and density      
  Barbara Sandhoefer     : DKH picture change effects                    
  Kantharuban Sivalingam : CASSCF convergence/infrastructure, NEVPT2 and variants, FIC-MRCI 
  Bernardo de Souza      : ESD, SOC TD-DFT                               
  Georgi L. Stoychev     : AutoAux, RI-MP2 NMR, DLPNO-MP2 response, X2C  
  Van Anh Tran           : RI-MP2 g-tensors                              
  Willem Van den Heuvel  : Paramagnetic NMR                              
  Zikuan Wang            : NOTCH, Electric field optimization            
  Frank Wennmohs         : Technical directorship and infrastructure     
  Hang Xu                : AUTO-CI-Response properties                   
                                                                         
[FACCTs GmbH]                                                            
  Markus Bursch, Miquel Garcia-Rates, Christoph Riplinger, Bernardo de Souza, Georgi L. Stoychev 
                                                                 
  APM, Basis sets (HGBS, AHGBS, def-TZVP (Ac-Lr), def2-XVPD (La-Lu)), CI-OPT, improved COSX, DLPNO-Multilevel,           
  DOCKER, DRACO, updates on ESD, GOAT, IRC, LR-CPCM, MBIS, meta-GGA TD-DFT gradient, ML-optimized integration grids, 
  MM, NACMEs, nearIR, NEB, NEB-TS, NL-DFT gradient (VV10), 2- and 3-layer-ONIOM, interface openCOSMO-RS, QMMM,   
  Crystal-QMMM, SF, symmetry and pop. for TD-DFT, r2SCAN hybrids, SOLVATOR                                   
                                                                         
[Other institutions]                                                     
  V. Asgeirsson          : NEB                                           
  Christoph Bannwarth    : sTDA-DFT, sTD-DFT, PBEh-3c, B97-3c, D3        
  Sebastian Ehlert       : rSCAN, r2SCAN, r2SCAN-3c, D4, dhf basis sets  
  Marvin Friede          : D4 for Fr, Ra, Ac-Lr                          
  Lars Goerigk           : TD-DFT with DH, B97 family of functionals     
  Stefan Grimme          : VdW corrections, initial TS optimization, DFT functionals, gCP, sTDA/sTD-DF 
  Waldemar Hujo          : DFT-NL                                        
  H. Jonsson             : NEB                                           
  Holger Kruse           : gCP                                           
  Marcel Mueller         : wB97X-3c, vDZP basis set                      
  Hagen Neugebauer       : wr2SCAN                                       
  Tobias Risthaus        : range-separated hybrid DFT                    
  Lukas Wittmann         : regularized MP2, r2SCAN double-hybrids, wr2SCAN        
                                                                         
We gratefully acknowledge several colleagues who have allowed us to      
interface, adapt or use parts of their codes:                            
  Ed Valeev, F. Pavosevic, A. Kumar             : LibInt (2-el integral package), F12 methods 
  Garnet Chan, S. Sharma, J. Yang, R. Olivares  : DMRG                   
  Ulf Ekstrom                                   : XCFun DFT Library      
  Mihaly Kallay                                 : mrcc  (arbitrary order and MRCC methods)
  Frank Weinhold                                : gennbo (NPA and NBO analysis)           
  Simon Mueller                                 : openCOSMO-RS                            
  Christopher J. Cramer and Donald G. Truhlar   : smd solvation model                     
  S Lehtola, MJT Oliveira, MAL Marques          : LibXC Library                           
  Liviu Ungur et al                             : ANISO software                          


 Your calculation uses the libint2 library for the computation of 2-el integrals
 For citations please refer to: http://libint.valeyev.net

 Your ORCA version has been built with support for libXC version: 6.2.2
 For citations please refer to: https://libxc.gitlab.io

 This ORCA versions uses:
   CBLAS   interface :  Fast vector & matrix operations
   LAPACKE interface :  Fast linear algebra routines
   SCALAPACK package :  Parallel linear algebra routines
   Shared memory     :  Shared parallel matrices
   BLAS/LAPACK       :  OpenBLAS 0.3.27  USE64BITINT DYNAMIC_ARCH NO_AFFINITY SkylakeX SINGLE_THREADED
        Core in use  :  SkylakeX
   Copyright (c) 2011-2014, The OpenBLAS Project


NOTE: MaxCore=3500 MB was set to SCF,MP2,MDCI,CIPSI,MRCI and CIS
      => If you want to overwrite this, your respective input block should be placed after the MaxCore statement
Your calculation utilizes the atom-pairwise dispersion correction
with the zero-damping scheme (D30)


XCFun DFT library Copyright 2009-2010 Ulf Ekstrom and contributors.
See http://admol.org/xcfun for more information.
This is free software; see the source code for copying conditions.
There is ABSOLUTELY NO WARRANTY; not even for MERCHANTABILITY or FITNESS FOR A PARTICULAR PURPOSE.
For details see the documentation.
Scientific users of this library should cite U. Ekstrom, L. Visscher, R. Bast, A. J. Thorvaldsen and K. Ruud;
J.Chem.Theor.Comp. 2010, DOI: 10.1021/ct100117s
XCFun Version 0.99 

Warning: RI is on but no J-basis has been assigned. Assigning Def2/J (nothing to worry about!)
================================================================================

----- Orbital basis set information -----
Your calculation utilizes the basis: def2-SVP
   F. Weigend and R. Ahlrichs, Phys. Chem. Chem. Phys. 7, 3297 (2005).

----- AuxJ basis set information -----
Your calculation utilizes the auxiliary basis: def2/J
   F. Weigend, Phys. Chem. Chem. Phys. 8, 1057 (2006).

================================================================================
                                        WARNINGS
                       Please study these warnings very carefully!
================================================================================


WARNING: Gradients are needed
  ===> : At least TightSCF should be used for SCF convergence

WARNING: your system is open-shell and RHF/RKS was chosen
  ===> : WILL SWITCH to UHF/UKS


WARNING: Geometry Optimization
  ===> : Switching off AutoStart
         For restart on a previous wavefunction, please use MOREAD

WARNING: TRAH does not support fractional occupations!
  ===> : Turning TRAH off

WARNING: Smearing is incompatible with SOSCF, disabling SOSCF
================================================================================
                                       INPUT FILE
================================================================================
NAME = honokiol_o2_11.inp
|  1> ! wB97X-D3 def2-SVP OPT NormalSCF
|  2> 
|  3> %pal
|  4> nprocs 28
|  5> end
|  6> 
|  7> %maxcore 3500
|  8> 
|  9> %scf
| 10>  SmearTemp 500 
| 11> end
| 12> 
| 13> * xyz -1 2
| 14> O 0.17169 2.05725 -1.80272
| 15> O -4.09357 -1.39903 1.23266
| 16> C 1.05035 0.444506 -0.274697
| 17> C -0.305395 -0.008963 0.123537
| 18> C -2.60471 -0.656007 -0.45342
| 19> C -1.33946 -0.192201 -0.812935
| 20> C 3.49412 0.268234 0.005916
| 21> C 2.187 -0.132062 0.311259
| 22> C 1.25772 1.47238 -1.22471
| 23> C -0.586309 -0.30619 1.46633
| 24> C -2.85416 -0.945741 0.902383
| 25> C -3.71693 -0.800485 -1.46975
| 26> C 4.67964 -0.392949 0.686038
| 27> C 3.66369 1.28446 -0.938877
| 28> C -1.84297 -0.770883 1.85232
| 29> C 2.55644 1.87872 -1.54619
| 30> C -4.63815 0.394721 -1.45695
| 31> C 4.6667 -1.89288 0.565789
| 32> C -5.92081 0.372055 -1.08833
| 33> C 4.6241 -2.74581 1.5929
| 34> H -1.14861 0.030136 -1.86322
| 35> H 2.04281 -0.949452 1.02155
| 36> H 0.182952 -0.156 2.22669
| 37> H -3.26638 -0.903905 -2.47151
| 38> H -4.29679 -1.71395 -1.26747
| 39> H 5.60741 0.003244 0.237321
| 40> H 4.70509 -0.115308 1.75487
| 41> H 4.66929 1.61904 -1.20833
| 42> H -2.04661 -0.992006 2.90519
| 43> H 2.69827 2.67735 -2.28197
| 44> H -4.17593 1.34601 -1.75068
| 45> H 4.67321 -2.28492 -0.459296
| 46> H 0.470608 2.7632 -2.39045
| 47> H -4.13363 -1.55431 2.18514
| 48> H -6.53208 1.27926 -1.08624
| 49> H -6.40214 -0.556626 -0.765117
| 50> H 4.60897 -3.8286 1.43968
| 51> H 4.60538 -2.38987 2.62898
| 52> O -3.28691 -2.15149 4.48181
| 53> O -4.47543 -2.06453 4.41933
| 54> *
| 55> 
| 56>                          ****END OF INPUT****
================================================================================

                       *****************************
                       * Geometry Optimization Run *
                       *****************************

Geometry optimization settings:
Update method            Update   .... BFGS
Choice of coordinates    CoordSys .... (2022) Redundant Internals
Initial Hessian          InHess   .... Almloef's Model
Max. no of cycles        MaxIter  .... 120

Convergence Tolerances:
Energy Change            TolE     ....  5.0000e-06 Eh
Max. Gradient            TolMAXG  ....  3.0000e-04 Eh/bohr
RMS Gradient             TolRMSG  ....  1.0000e-04 Eh/bohr
Max. Displacement        TolMAXD  ....  4.0000e-03 bohr
RMS Displacement         TolRMSD  ....  2.0000e-03 bohr
Strict Convergence                .... False

------------------------------------------------------------------------------
                        ORCA OPTIMIZATION COORDINATE SETUP
------------------------------------------------------------------------------

The optimization will be done in redundant internal coordinates (2022)
Making redundant internal coordinates   ...  (2022 redundants) done
Evaluating the initial hessian          ...  (Almloef) done
Evaluating the coordinates              ...  done
Calculating the B-matrix                .... done
Calculating the G-matrix                .... done
Diagonalizing the G-matrix              .... done
Small eigenvalue found = 2.795e-03
Small eigenvalue found = 6.614e-03
Small eigenvalue found = 9.780e-03
Small eigenvalue found = 1.470e-02
Small eigenvalue found = 1.589e-02
The first mode is                       ....   94
The number of degrees of freedom        ....  114

    -----------------------------------------------------------------
                    Redundant Internal Coordinates


    -----------------------------------------------------------------
         Definition                    Initial Value    Approx d2E/dq
    -----------------------------------------------------------------
      1. B(C   3,C   2)                  1.4840         0.442344   
      2. B(C   5,C   4)                  1.3947         0.614072   
      3. B(C   5,C   3)                  1.4071         0.586819   
      4. B(C   7,C   6)                  1.4007         0.600656   
      5. B(C   7,C   2)                  1.4028         0.596175   
      6. B(C   8,C   2)                  1.4149         0.570099   
      7. B(C   8,O   0)                  1.3622         0.619733   
      8. B(C   9,C   3)                  1.4037         0.594148   
      9. B(C  10,O   1)                  1.3604         0.623877   
     10. B(C  10,C   4)                  1.4087         0.583364   
     11. B(C  11,C   4)                  1.5136         0.396846   
     12. B(C  12,C   6)                  1.5183         0.390004   
     13. B(C  13,C   6)                  1.3979         0.606941   
     14. B(C  14,C  10)                  1.3984         0.605860   
     15. B(C  14,C   9)                  1.3943         0.614962   
     16. B(C  15,C  13)                  1.3957         0.611851   
     17. B(C  15,C   8)                  1.3983         0.606119   
     18. B(C  16,C  11)                  1.5091         0.403414   
     19. B(C  17,C  12)                  1.5048         0.409811   
     20. B(C  18,C  16)                  1.3348         0.765340   
     21. B(C  19,C  17)                  1.3358         0.762555   
     22. B(H  20,C   5)                  1.0904         0.359581   
     23. B(H  21,C   7)                  1.0924         0.356883   
     24. B(H  22,C   9)                  1.0920         0.357462   
     25. B(H  23,C  11)                  1.1033         0.342961   
     26. B(H  24,C  11)                  1.1007         0.346201   
     27. B(H  25,C  12)                  1.1041         0.341902   
     28. B(H  26,C  12)                  1.1046         0.341299   
     29. B(H  27,C  13)                  1.0935         0.355477   
     30. B(H  28,C  14)                  1.0949         0.353620   
     31. B(H  29,C  15)                  1.0951         0.353384   
     32. B(H  30,C  16)                  1.0977         0.350098   
     33. B(H  31,C  17)                  1.0975         0.350296   
     34. B(H  32,O   0)                  0.9660         0.508632   
     35. B(H  33,O   1)                  0.9659         0.508835   
     36. B(H  34,C  18)                  1.0939         0.354942   
     37. B(H  35,C  18)                  1.0948         0.353802   
     38. B(H  36,C  19)                  1.0937         0.355262   
     39. B(H  37,C  19)                  1.0957         0.352669   
     40. B(O  38,H  33)                  2.5196         0.001690   
     41. B(O  38,H  28)                  2.3170         0.003556   
     42. B(O  39,H  33)                  2.3171         0.003555   
     43. B(O  39,O  38)                  1.1933         1.032240   
     44. A(C   8,O   0,H  32)          108.9796         0.368691   
     45. A(C  10,O   1,H  33)          109.3151         0.369139   
     46. A(C   3,C   2,C   8)          122.4149         0.402665   
     47. A(C   3,C   2,C   7)          120.1702         0.405856   
     48. A(C   7,C   2,C   8)          117.4059         0.424585   
     49. A(C   2,C   3,C   5)          122.1802         0.404724   
     50. A(C   5,C   3,C   9)          117.5178         0.426527   
     51. A(C   2,C   3,C   9)          120.2810         0.405612   
     52. A(C  10,C   4,C  11)          119.7703         0.396651   
     53. A(C   5,C   4,C  11)          121.6874         0.400244   
     54. A(C   5,C   4,C  10)          118.4985         0.428602   
     55. A(C   3,C   5,H  20)          119.0704         0.349559   
     56. A(C   3,C   5,C   4)          122.5773         0.429057   
     57. A(C   4,C   5,H  20)          118.3514         0.352250   
     58. A(C   7,C   6,C  12)          120.4342         0.397475   
     59. A(C   7,C   6,C  13)          117.9228         0.429953   
     60. A(C  12,C   6,C  13)          121.6428         0.398202   
     61. A(C   2,C   7,H  21)          118.1759         0.350048   
     62. A(C   6,C   7,H  21)          118.6023         0.350491   
     63. A(C   2,C   7,C   6)          123.2042         0.428574   
     64. A(O   0,C   8,C   2)          118.6821         0.424756   
     65. A(C   2,C   8,C  15)          120.1059         0.425844   
     66. A(O   0,C   8,C  15)          121.2095         0.429444   
     67. A(C  14,C   9,H  22)          119.2081         0.351984   
     68. A(C   3,C   9,H  22)          119.7350         0.349943   
     69. A(C   3,C   9,C  14)          121.0481         0.430125   
     70. A(O   1,C  10,C   4)          117.6152         0.427018   
     71. A(O   1,C  10,C  14)          122.3809         0.429925   
     72. A(C   4,C  10,C  14)          120.0031         0.427569   
     73. A(C   4,C  11,C  16)          111.5484         0.372010   
     74. A(H  23,C  11,H  24)          107.7102         0.286853   
     75. A(C  16,C  11,H  24)          109.5196         0.326324   
     76. A(C   4,C  11,H  24)          110.0558         0.325444   
     77. A(C  16,C  11,H  23)          109.3439         0.325819   
     78. A(C   4,C  11,H  23)          108.5758         0.324941   
     79. A(C   6,C  12,C  17)          113.0517         0.371903   
     80. A(H  25,C  12,H  26)          106.4807         0.286078   
     81. A(C   6,C  12,H  26)          109.9977         0.323756   
     82. A(C  17,C  12,H  25)          109.4158         0.326498   
     83. A(C   6,C  12,H  25)          108.5301         0.323850   
     84. A(C  17,C  12,H  26)          109.1510         0.326403   
     85. A(C   6,C  13,C  15)          120.4899         0.431381   
     86. A(C  15,C  13,H  27)          119.4756         0.351351   
     87. A(C   6,C  13,H  27)          120.0345         0.350873   
     88. A(C  10,C  14,H  28)          119.5690         0.350458   
     89. A(C   9,C  14,H  28)          120.0741         0.351342   
     90. A(C   9,C  14,C  10)          120.3542         0.431636   
     91. A(C  13,C  15,H  29)          120.0073         0.351001   
     92. A(C   8,C  15,H  29)          119.1231         0.350443   
     93. A(C   8,C  15,C  13)          120.8690         0.431276   
     94. A(C  11,C  16,C  18)          125.1355         0.417367   
     95. A(C  18,C  16,H  30)          119.5558         0.364034   
     96. A(C  11,C  16,H  30)          115.2814         0.326926   
     97. A(C  12,C  17,C  19)          125.1204         0.418267   
     98. A(C  19,C  17,H  31)          119.3595         0.363842   
     99. A(C  12,C  17,H  31)          115.5080         0.327805   
    100. A(H  34,C  18,H  35)          117.2091         0.289380   
    101. A(C  16,C  18,H  35)          121.2264         0.364690   
    102. A(C  16,C  18,H  34)          121.5616         0.364891   
    103. A(H  36,C  19,H  37)          116.9918         0.289275   
    104. A(C  17,C  19,H  37)          121.3470         0.364263   
    105. A(C  17,C  19,H  36)          121.6610         0.364720   
    106. A(C  14,H  28,O  38)          148.7520         0.158859   
    107. A(O  38,H  33,O  39)           28.1702         0.109598   
    108. A(O   1,H  33,O  38)          157.3755         0.152350   
    109. A(O   1,H  33,O  39)          172.9186         0.163968   
    110. A(H  28,O  38,H  33)           56.0151         0.109599   
    111. A(H  33,O  38,O  39)           66.4407         0.174538   
    112. A(H  28,O  38,O  39)          117.4550         0.190231   
    113. A(H  33,O  39,O  38)           85.3891         0.190226   
    114. D(C   9,C   3,C   2,C   8)   -139.5968         0.013348   
    115. D(C   9,C   3,C   2,C   7)     39.2822         0.013348   
    116. D(C   5,C   3,C   2,C   8)     42.1123         0.013348   
    117. D(C   5,C   3,C   2,C   7)   -139.0087         0.013348   
    118. D(H  20,C   5,C   4,C  11)     -2.4894         0.026063   
    119. D(H  20,C   5,C   3,C   2)     -1.6088         0.023685   
    120. D(C   3,C   5,C   4,C  10)      0.2712         0.026063   
    121. D(C   4,C   5,C   3,C   2)    178.0425         0.023685   
    122. D(C   3,C   5,C   4,C  11)    177.8570         0.026063   
    123. D(C   4,C   5,C   3,C   9)     -0.2934         0.023685   
    124. D(H  20,C   5,C   4,C  10)    179.9248         0.026063   
    125. D(H  20,C   5,C   3,C   9)   -179.9446         0.023685   
    126. D(C   6,C   7,C   2,C   3)   -178.4804         0.024485   
    127. D(C   6,C   7,C   2,C   8)      0.4536         0.024485   
    128. D(H  21,C   7,C   2,C   3)      3.0694         0.024485   
    129. D(H  21,C   7,C   6,C  12)     -2.0027         0.024875   
    130. D(C   2,C   7,C   6,C  13)     -0.5867         0.024875   
    131. D(H  21,C   7,C   6,C  13)    177.8573         0.024875   
    132. D(H  21,C   7,C   2,C   8)   -177.9966         0.024485   
    133. D(C   2,C   7,C   6,C  12)    179.5533         0.024875   
    134. D(C  15,C   8,C   2,C   7)     -0.0883         0.022295   
    135. D(C  15,C   8,C   2,C   3)    178.8200         0.022295   
    136. D(O   0,C   8,C   2,C   7)   -179.5253         0.022295   
    137. D(C  15,C   8,O   0,H  32)     -2.1803         0.028176   
    138. D(O   0,C   8,C   2,C   3)     -0.6170         0.022295   
    139. D(C   2,C   8,O   0,H  32)    177.2502         0.028176   
    140. D(H  22,C   9,C   3,C   5)   -178.6471         0.024311   
    141. D(C  14,C   9,C   3,C   5)      0.2666         0.024311   
    142. D(H  22,C   9,C   3,C   2)      2.9840         0.024311   
    143. D(C  14,C   9,C   3,C   2)   -178.1024         0.024311   
    144. D(C   4,C  10,O   1,H  33)   -179.7415         0.028582   
    145. D(C  14,C  10,C   4,C  11)   -177.8507         0.023393   
    146. D(C  14,C  10,C   4,C   5)     -0.2174         0.023393   
    147. D(O   1,C  10,C   4,C  11)      2.4711         0.023393   
    148. D(O   1,C  10,C   4,C   5)   -179.8955         0.023393   
    149. D(C  14,C  10,O   1,H  33)      0.5885         0.028582   
    150. D(H  24,C  11,C   4,C   5)    140.9906         0.011696   
    151. D(H  23,C  11,C   4,C  10)   -159.1205         0.011696   
    152. D(H  23,C  11,C   4,C   5)     23.3238         0.011696   
    153. D(C  16,C  11,C   4,C  10)     80.3216         0.011696   
    154. D(C  16,C  11,C   4,C   5)    -97.2341         0.011696   
    155. D(H  26,C  12,C   6,C   7)    -68.9642         0.011316   
    156. D(H  25,C  12,C   6,C  13)     -4.9471         0.011316   
    157. D(H  25,C  12,C   6,C   7)    174.9076         0.011316   
    158. D(C  17,C  12,C   6,C  13)   -126.5247         0.011316   
    159. D(C  17,C  12,C   6,C   7)     53.3300         0.011316   
    160. D(H  27,C  13,C   6,C  12)      0.2795         0.025427   
    161. D(H  27,C  13,C   6,C   7)   -179.5787         0.025427   
    162. D(C  15,C  13,C   6,C  12)   -179.7891         0.025427   
    163. D(C  15,C  13,C   6,C   7)      0.3527         0.025427   
    164. D(H  28,C  14,C  10,C   4)    179.6009         0.025332   
    165. D(H  28,C  14,C  10,O   1)     -0.7367         0.025332   
    166. D(C   9,C  14,C  10,C   4)      0.1998         0.025332   
    167. D(C   9,C  14,C  10,O   1)    179.8621         0.025332   
    168. D(H  28,C  14,C   9,H  22)     -0.7067         0.026143   
    169. D(H  28,C  14,C   9,C   3)   -179.6260         0.026143   
    170. D(C  10,C  14,C   9,H  22)    178.6914         0.026143   
    171. D(C  10,C  14,C   9,C   3)     -0.2278         0.026143   
    172. D(C   8,C  15,C  13,C   6)     -0.0125         0.025864   
    173. D(H  29,C  15,C   8,C   2)   -179.8595         0.025355   
    174. D(H  29,C  15,C   8,O   0)     -0.4370         0.025355   
    175. D(C  13,C  15,C   8,C   2)     -0.1232         0.025355   
    176. D(C  13,C  15,C   8,O   0)    179.2993         0.025355   
    177. D(H  29,C  15,C  13,H  27)     -0.3468         0.025864   
    178. D(H  29,C  15,C  13,C   6)    179.7214         0.025864   
    179. D(C   8,C  15,C  13,H  27)    179.9193         0.025864   
    180. D(H  30,C  16,C  11,H  23)    -56.1564         0.012069   
    181. D(H  30,C  16,C  11,C   4)     63.9506         0.012069   
    182. D(C  18,C  16,C  11,H  24)      7.9550         0.012069   
    183. D(C  18,C  16,C  11,H  23)    125.7631         0.012069   
    184. D(C  18,C  16,C  11,C   4)   -114.1299         0.012069   
    185. D(H  31,C  17,C  12,H  25)    -62.0054         0.012439   
    186. D(H  31,C  17,C  12,C   6)     59.0719         0.012439   
    187. D(C  19,C  17,C  12,H  26)      3.1143         0.012439   
    188. D(C  19,C  17,C  12,H  25)    119.2708         0.012439   
    189. D(C  19,C  17,C  12,C   6)   -119.6519         0.012439   
    190. D(H  35,C  18,C  16,H  30)   -178.3788         0.041939   
    191. D(H  35,C  18,C  16,C  11)     -0.3741         0.041939   
    192. D(H  34,C  18,C  16,H  30)      0.9903         0.041939   
    193. D(H  34,C  18,C  16,C  11)    178.9949         0.041939   
    194. D(H  37,C  19,C  17,H  31)   -179.3285         0.041604   
    195. D(H  37,C  19,C  17,C  12)     -0.6500         0.041604   
    196. D(H  36,C  19,C  17,H  31)      0.8340         0.041604   
    197. D(H  36,C  19,C  17,C  12)    179.5125         0.041604   
    198. D(O  38,H  28,C  14,C  10)     24.8824         0.104899   
    199. D(O  38,H  28,C  14,C   9)   -155.7147         0.104899   
    200. D(O  38,H  33,O   1,C  10)    -30.9941         0.327004   
    201. D(O  39,H  33,O   1,C  10)   -167.5910         0.327004   
    202. D(H  28,O  38,H  33,O  39)   -154.2292         0.001502   
    203. D(H  28,O  38,H  33,O   1)     36.1076         0.001502   
    204. D(O  39,O  38,H  33,O   1)   -169.6632         0.001502   
    205. D(H  33,O  38,H  28,C  14)    -26.7840         0.001507   
    206. D(O  39,O  38,H  28,C  14)    -53.4709         0.001507   
    207. D(H  33,O  39,O  38,H  28)     23.9703         0.105197   
    208. D(O  38,O  39,H  33,O   1)    145.9502         0.001507   
    -----------------------------------------------------------------

Number of atoms                         .... 40
Number of degrees of freedom            .... 208


         *************************************************************
         *                GEOMETRY OPTIMIZATION CYCLE   1            *
         *************************************************************
---------------------------------
CARTESIAN COORDINATES (ANGSTROEM)
---------------------------------
  O      0.171690    2.057250   -1.802720
  O     -4.093570   -1.399030    1.232660
  C      1.050350    0.444506   -0.274697
  C     -0.305395   -0.008963    0.123537
  C     -2.604710   -0.656007   -0.453420
  C     -1.339460   -0.192201   -0.812935
  C      3.494120    0.268234    0.005916
  C      2.187000   -0.132062    0.311259
  C      1.257720    1.472380   -1.224710
  C     -0.586309   -0.306190    1.466330
  C     -2.854160   -0.945741    0.902383
  C     -3.716930   -0.800485   -1.469750
  C      4.679640   -0.392949    0.686038
  C      3.663690    1.284460   -0.938877
  C     -1.842970   -0.770883    1.852320
  C      2.556440    1.878720   -1.546190
  C     -4.638150    0.394721   -1.456950
  C      4.666700   -1.892880    0.565789
  C     -5.920810    0.372055   -1.088330
  C      4.624100   -2.745810    1.592900
  H     -1.148610    0.030136   -1.863220
  H      2.042810   -0.949452    1.021550
  H      0.182952   -0.156000    2.226690
  H     -3.266380   -0.903905   -2.471510
  H     -4.296790   -1.713950   -1.267470
  H      5.607410    0.003244    0.237321
  H      4.705090   -0.115308    1.754870
  H      4.669290    1.619040   -1.208330
  H     -2.046610   -0.992006    2.905190
  H      2.698270    2.677350   -2.281970
  H     -4.175930    1.346010   -1.750680
  H      4.673210   -2.284920   -0.459296
  H      0.470608    2.763200   -2.390450
  H     -4.133630   -1.554310    2.185140
  H     -6.532080    1.279260   -1.086240
  H     -6.402140   -0.556626   -0.765117
  H      4.608970   -3.828600    1.439680
  H      4.605380   -2.389870    2.628980
  O     -3.286910   -2.151490    4.481810
  O     -4.475430   -2.064530    4.419330

----------------------------
CARTESIAN COORDINATES (A.U.)
----------------------------
  NO LB      ZA    FRAG     MASS         X           Y           Z
   0 O     8.0000    0    15.999    0.324447    3.887639   -3.406647
   1 O     8.0000    0    15.999   -7.735726   -2.643784    2.329390
   2 C     6.0000    0    12.011    1.984874    0.839995   -0.519102
   3 C     6.0000    0    12.011   -0.577113   -0.016938    0.233451
   4 C     6.0000    0    12.011   -4.922189   -1.239674   -0.856840
   5 C     6.0000    0    12.011   -2.531213   -0.363207   -1.536225
   6 C     6.0000    0    12.011    6.602930    0.506889    0.011180
   7 C     6.0000    0    12.011    4.132831   -0.249561    0.588194
   8 C     6.0000    0    12.011    2.376746    2.782395   -2.314366
   9 C     6.0000    0    12.011   -1.107963   -0.578615    2.770962
  10 C     6.0000    0    12.011   -5.393581   -1.787191    1.705257
  11 C     6.0000    0    12.011   -7.023980   -1.512697   -2.777425
  12 C     6.0000    0    12.011    8.843238   -0.742566    1.296424
  13 C     6.0000    0    12.011    6.923371    2.427278   -1.774220
  14 C     6.0000    0    12.011   -3.482709   -1.456758    3.500378
  15 C     6.0000    0    12.011    4.830971    3.550266   -2.921876
  16 C     6.0000    0    12.011   -8.764833    0.745915   -2.753236
  17 C     6.0000    0    12.011    8.818785   -3.577025    1.069186
  18 C     6.0000    0    12.011  -11.188709    0.703082   -2.056646
  19 C     6.0000    0    12.011    8.738283   -5.188829    3.010145
  20 H     1.0000    0     1.008   -2.170558    0.056949   -3.520976
  21 H     1.0000    0     1.008    3.860351   -1.794204    1.930450
  22 H     1.0000    0     1.008    0.345729   -0.294797    4.207834
  23 H     1.0000    0     1.008   -6.172564   -1.708133   -4.670477
  24 H     1.0000    0     1.008   -8.119756   -3.238896   -2.395171
  25 H     1.0000    0     1.008   10.596469    0.006130    0.448472
  26 H     1.0000    0     1.008    8.891332   -0.217901    3.316224
  27 H     1.0000    0     1.008    8.823679    3.059542   -2.283413
  28 H     1.0000    0     1.008   -3.867532   -1.874620    5.490013
  29 H     1.0000    0     1.008    5.098991    5.059458   -4.312298
  30 H     1.0000    0     1.008   -7.891364    2.543590   -3.308306
  31 H     1.0000    0     1.008    8.831087   -4.317873   -0.867944
  32 H     1.0000    0     1.008    0.889320    5.221691   -4.517296
  33 H     1.0000    0     1.008   -7.811429   -2.937220    4.129316
  34 H     1.0000    0     1.008  -12.343842    2.417451   -2.052696
  35 H     1.0000    0     1.008  -12.098291   -1.051871   -1.445862
  36 H     1.0000    0     1.008    8.709691   -7.235005    2.720601
  37 H     1.0000    0     1.008    8.702907   -4.516200    4.968052
  38 O     8.0000    0    15.999   -6.211360   -4.065727    8.469393
  39 O     8.0000    0    15.999   -8.457337   -3.901396    8.351323

--------------------------------
INTERNAL COORDINATES (ANGSTROEM)
--------------------------------
 O      0   0   0     0.000000000000     0.00000000     0.00000000
 O      1   0   0     6.273104976836     0.00000000     0.00000000
 C      1   2   0     2.389108807414    64.44752623     0.00000000
 C      3   1   2     1.484004365810    92.40215559   359.12208104
 C      2   1   3     2.368892788737    19.16907795   264.50136248
 C      5   2   1     1.394713089980   149.08605384    47.30340175
 C      3   1   2     2.466136104649   119.04307843   180.43286531
 C      7   3   1     1.400726215099    28.42040436   180.00779755
 C      1   2   3     1.362214974921    95.75072133     0.18622401
 C      4   3   1     1.403691421137   120.28099236   220.09430860
 C      2   1   3     1.360401029972    22.99855626     3.26976214
 C      5   2   1     1.513550094904    89.20613490   229.26969973
 C      7   3   1     1.518284085662   148.85324233   179.26318151
 C      7   3   1     1.397892370973    89.50366465   359.48939133
 C     10   4   3     1.394318734461   121.04811955   181.89763239
 C     14   7   3     1.395699319363   120.48993951     0.07350324
 C     12   5   2     1.509081677987   111.54839197    81.57886834
 C     13   7   3     1.504799079732   113.05166294    53.74096847
 C     17  12   5     1.334770065426   125.13546892   245.87008318
 C     18  13   7     1.335762460627   125.12044144   240.34810303
 H      6   5   2     1.090392610620   118.35141301   179.82135391
 H      8   7   3     1.092442434585   118.60228493   178.44396639
 H     10   4   3     1.092001305778   119.73503627     2.98401560
 H     12   5   2     1.103274261687   108.57582802   202.13676684
 H     12   5   2     1.100714824205   110.05575445   319.80354641
 H     13   7   3     1.104116394334   108.53005844   175.31858898
 H     13   7   3     1.104596791415   109.99770879   291.44679911
 H     14   7   3     1.093517286379   120.03445985   180.14206741
 H     15  10   4     1.094942860440   120.07406007   180.37403772
 H     16  14   7     1.095124574740   120.00731731   179.72142863
 H     17  12   5     1.097668166078   115.28142282    63.95056746
 H     18  13   7     1.097514008532   115.50802162    59.07192965
 H      1   2   3     0.965993750562   155.15440951   185.65381113
 H      2   1   3     0.965885517233   126.43655883    49.87276035
 H     19  17  12     1.093927005346   121.56158334   178.99491645
 H     19  17  12     1.094803001471   121.22644356   359.62591270
 H     20  18  13     1.093681612445   121.66099839   179.51249436
 H     20  18  13     1.095675813551   121.34701835   359.34998701
 O     29  15  10     2.316997596170   148.75195365   204.28530574
 O     39  29  15     1.193333810130   117.45498768   306.52911598

---------------------------
INTERNAL COORDINATES (A.U.)
---------------------------
 O      0   0   0     0.000000000000     0.00000000     0.00000000
 O      1   0   0    11.854450415558     0.00000000     0.00000000
 C      1   2   0     4.514761350152    64.44752623     0.00000000
 C      3   1   2     2.804361832924    92.40215559   359.12208104
 C      2   1   3     4.476558611333    19.16907795   264.50136248
 C      5   2   1     2.635625775457   149.08605384    47.30340175
 C      3   1   2     4.660321846762   119.04307843   180.43286531
 C      7   3   1     2.646988935141    28.42040436   180.00779755
 C      1   2   3     2.574213238128    95.75072133     0.18622401
 C      4   3   1     2.652592362484   120.28099236   220.09430860
 C      2   1   3     2.570785378952    22.99855626     3.26976214
 C      5   2   1     2.860195169339    89.20613490   229.26969973
 C      7   3   1     2.869141115391   148.85324233   179.26318151
 C      7   3   1     2.641633745837    89.50366465   359.48939133
 C     10   4   3     2.634880551528   121.04811955   181.89763239
 C     14   7   3     2.637489478895   120.48993951     0.07350324
 C     12   5   2     2.851751085114   111.54839197    81.57886834
 C     13   7   3     2.843658147270   113.05166294    53.74096847
 C     17  12   5     2.522349875410   125.13546892   245.87008318
 C     18  13   7     2.524225230558   125.12044144   240.34810303
 H      6   5   2     2.060543412523   118.35141301   179.82135391
 H      8   7   3     2.064417018439   118.60228493   178.44396639
 H     10   4   3     2.063583405805   119.73503627     2.98401560
 H     12   5   2     2.084886205192   108.57582802   202.13676684
 H     12   5   2     2.080049569295   110.05575445   319.80354641
 H     13   7   3     2.086477605265   108.53005844   175.31858898
 H     13   7   3     2.087385424183   109.99770879   291.44679911
 H     14   7   3     2.066448193964   120.03445985   180.14206741
 H     15  10   4     2.069142138524   120.07406007   180.37403772
 H     16  14   7     2.069485528786   120.00731731   179.72142863
 H     17  12   5     2.074292219811   115.28142282    63.95056746
 H     18  13   7     2.074000904268   115.50802162    59.07192965
 H      1   2   3     1.825463635641   155.15440951   185.65381113
 H      2   1   3     1.825259104291   126.43655883    49.87276035
 H     19  17  12     2.067222450604   121.56158334   178.99491645
 H     19  17  12     2.068877843375   121.22644356   359.62591270
 H     20  18  13     2.066758725226   121.66099839   179.51249436
 H     20  18  13     2.070527219172   121.34701835   359.34998701
 O     29  15  10     4.378490909715   148.75195365   204.28530574
 O     39  29  15     2.255074087495   117.45498768   306.52911598

---------------------
BASIS SET INFORMATION
---------------------
There are 3 groups of distinct atoms

 Group   1 Type O   : 7s4p1d contracted to 3s2p1d pattern {511/31/1}
 Group   2 Type C   : 7s4p1d contracted to 3s2p1d pattern {511/31/1}
 Group   3 Type H   : 4s1p contracted to 2s1p pattern {31/1}

Atom   0O    basis set group =>   1
Atom   1O    basis set group =>   1
Atom   2C    basis set group =>   2
Atom   3C    basis set group =>   2
Atom   4C    basis set group =>   2
Atom   5C    basis set group =>   2
Atom   6C    basis set group =>   2
Atom   7C    basis set group =>   2
Atom   8C    basis set group =>   2
Atom   9C    basis set group =>   2
Atom  10C    basis set group =>   2
Atom  11C    basis set group =>   2
Atom  12C    basis set group =>   2
Atom  13C    basis set group =>   2
Atom  14C    basis set group =>   2
Atom  15C    basis set group =>   2
Atom  16C    basis set group =>   2
Atom  17C    basis set group =>   2
Atom  18C    basis set group =>   2
Atom  19C    basis set group =>   2
Atom  20H    basis set group =>   3
Atom  21H    basis set group =>   3
Atom  22H    basis set group =>   3
Atom  23H    basis set group =>   3
Atom  24H    basis set group =>   3
Atom  25H    basis set group =>   3
Atom  26H    basis set group =>   3
Atom  27H    basis set group =>   3
Atom  28H    basis set group =>   3
Atom  29H    basis set group =>   3
Atom  30H    basis set group =>   3
Atom  31H    basis set group =>   3
Atom  32H    basis set group =>   3
Atom  33H    basis set group =>   3
Atom  34H    basis set group =>   3
Atom  35H    basis set group =>   3
Atom  36H    basis set group =>   3
Atom  37H    basis set group =>   3
Atom  38O    basis set group =>   1
Atom  39O    basis set group =>   1
---------------------------------
AUXILIARY/J BASIS SET INFORMATION
---------------------------------
There are 3 groups of distinct atoms

 Group   1 Type O   : 12s5p4d2f1g contracted to 6s4p3d1f1g pattern {711111/2111/211/2/1}
 Group   2 Type C   : 12s5p4d2f1g contracted to 6s4p3d1f1g pattern {711111/2111/211/2/1}
 Group   3 Type H   : 5s2p1d contracted to 3s1p1d pattern {311/2/1}

Atom   0O    basis set group =>   1
Atom   1O    basis set group =>   1
Atom   2C    basis set group =>   2
Atom   3C    basis set group =>   2
Atom   4C    basis set group =>   2
Atom   5C    basis set group =>   2
Atom   6C    basis set group =>   2
Atom   7C    basis set group =>   2
Atom   8C    basis set group =>   2
Atom   9C    basis set group =>   2
Atom  10C    basis set group =>   2
Atom  11C    basis set group =>   2
Atom  12C    basis set group =>   2
Atom  13C    basis set group =>   2
Atom  14C    basis set group =>   2
Atom  15C    basis set group =>   2
Atom  16C    basis set group =>   2
Atom  17C    basis set group =>   2
Atom  18C    basis set group =>   2
Atom  19C    basis set group =>   2
Atom  20H    basis set group =>   3
Atom  21H    basis set group =>   3
Atom  22H    basis set group =>   3
Atom  23H    basis set group =>   3
Atom  24H    basis set group =>   3
Atom  25H    basis set group =>   3
Atom  26H    basis set group =>   3
Atom  27H    basis set group =>   3
Atom  28H    basis set group =>   3
Atom  29H    basis set group =>   3
Atom  30H    basis set group =>   3
Atom  31H    basis set group =>   3
Atom  32H    basis set group =>   3
Atom  33H    basis set group =>   3
Atom  34H    basis set group =>   3
Atom  35H    basis set group =>   3
Atom  36H    basis set group =>   3
Atom  37H    basis set group =>   3
Atom  38O    basis set group =>   1
Atom  39O    basis set group =>   1


           ************************************************************
           *        Program running with 28 parallel MPI-processes    *
           *              working on a common directory               *
           ************************************************************
------------------------------------------------------------------------------
                             ORCA STARTUP CALCULATIONS
                           -- RI-GTO INTEGRALS CHOSEN --
------------------------------------------------------------------------------
------------------------------------------------------------------------------
                   ___                                                        
                  /   \      - P O W E R E D   B Y -                         
                 /     \                                                     
                 |  |  |   _    _      __       _____    __    __             
                 |  |  |  | |  | |    /  \     |  _  \  |  |  /  |          
                  \  \/   | |  | |   /    \    | | | |  |  | /  /          
                 / \  \   | |__| |  /  /\  \   | |_| |  |  |/  /          
                |  |  |   |  __  | /  /__\  \  |    /   |      \           
                |  |  |   | |  | | |   __   |  |    \   |  |\   \          
                \     /   | |  | | |  |  |  |  | |\  \  |  | \   \       
                 \___/    |_|  |_| |__|  |__|  |_| \__\ |__|  \__/        
                                                                              
                      - O R C A' S   B I G   F R I E N D -                    
                                      &                                       
                       - I N T E G R A L  F E E D E R -                       
                                                                              
 v1 FN, 2020, v2 2021, v3 2022-2024                                           
------------------------------------------------------------------------------


----------------------
SHARK INTEGRAL PACKAGE
----------------------

Number of atoms                             ...     40
Number of basis functions                   ...    398
Number of shells                            ...    186
Maximum angular momentum                    ...      2
Integral batch strategy                     ... SHARK/LIBINT Hybrid
RI-J (if used) integral strategy            ... SPLIT-RIJ (Revised 2003 algorithm where possible)
Printlevel                                  ...      1
Contraction scheme used                     ... SEGMENTED contraction
Prescreening option                         ... SCHWARTZ
   Thresh                                   ... 1.000e-10
   Tcut                                     ... 1.000e-11
   Tpresel                                  ... 1.000e-11 
Coulomb Range Separation                    ... NOT USED
Exchange Range Separation                   ... Long Range
   Mu parameter                             ... 2.500e-01
   Scaling (regular/separated)              ... 1.957e-01 8.043e-01
Multipole approximations                    ... NOT USED
Finite Nucleus Model                        ... NOT USED
CABS basis                                  ... NOT available
Auxiliary Coulomb fitting basis             ... AVAILABLE
   # of basis functions in Aux-J            ...   1276
   # of shells in Aux-J                     ...    420
   Maximum angular momentum in Aux-J        ...      4
Auxiliary J/K fitting basis                 ... NOT available
Auxiliary Correlation fitting basis         ... NOT available
Auxiliary 'external' fitting basis          ... NOT available

Checking pre-screening integrals            ... done (  0.0 sec) Dimension = 186
Check shell pair data                       ... done (  0.0 sec)
Shell pair information
Shell pair cut-off parameter TPreSel        ...   1.0e-11
Total number of shell pairs                 ...     17391
Shell pairs after pre-screening             ...     11338
Total number of primitive shell pairs       ...     63175
Primitive shell pairs kept                  ...     26180
          la=0 lb=0:   3538 shell pairs
          la=1 lb=0:   4226 shell pairs
          la=1 lb=1:   1311 shell pairs
          la=2 lb=0:   1336 shell pairs
          la=2 lb=1:    798 shell pairs
          la=2 lb=2:    129 shell pairs

Calculating one electron integrals          ... done (  0.1 sec)
Calculating RI/J V-Matrix + Cholesky decomp.... done (  0.1 sec)
Calculating Nuclear repulsion               ... done (  0.0 sec) ENN=   1632.685558714630 Eh

Diagonalization of the overlap matrix:
Smallest eigenvalue                        ... 2.218e-04
Time for diagonalization                   ...    0.016 sec
Threshold for overlap eigenvalues          ... 1.000e-07
Number of eigenvalues below threshold      ... 0
Time for construction of square roots      ...    0.008 sec
Total time needed                          ...    0.036 sec

-------------------
DFT GRID GENERATION
-------------------

General Integration Accuracy     IntAcc      ... 4.388
Radial Grid Type                 RadialGrid  ... OptM3 with GC (2021)
Angular Grid (max. ang.)         AngularGrid ... 4 (Lebedev-302)
Angular grid pruning method      GridPruning ... 4 (adaptive)
Weight generation scheme         WeightScheme... mBecke (2022)
Basis function cutoff            BFCut       ... 1.0000e-10
Integration weight cutoff        WCut        ... 1.0000e-14
Partially contracted basis set               ... off
Rotationally invariant grid construction     ... off
Angular grids for H and He will be reduced by one unit

Total number of grid points                  ...   189326
Total number of batches                      ...     2979
Average number of points per batch           ...       63
Average number of grid points per atom       ...     4733

--------------------
COSX GRID GENERATION
--------------------

GRIDX 1
-------
General Integration Accuracy     IntAcc      ... 3.816
Radial Grid Type                 RadialGrid  ... OptM3 with GC (2021)
Angular Grid (max. ang.)         AngularGrid ... 1 (Lebedev-50)
Angular grid pruning method      GridPruning ... 4 (adaptive)
Weight generation scheme         WeightScheme... mBecke (2022)
Basis function cutoff            BFCut       ... 1.0000e-10
Integration weight cutoff        WCut        ... 1.0000e-14
Partially contracted basis set               ... on
Rotationally invariant grid construction     ... off
Angular grids for H and He will be reduced by one unit

Total number of grid points                  ...    24059
Total number of batches                      ...      214
Average number of points per batch           ...      112
Average number of grid points per atom       ...      601
UseSFitting                                  ... on

GRIDX 2
-------
General Integration Accuracy     IntAcc      ... 4.020
Radial Grid Type                 RadialGrid  ... OptM3 with GC (2021)
Angular Grid (max. ang.)         AngularGrid ... 2 (Lebedev-110)
Angular grid pruning method      GridPruning ... 4 (adaptive)
Weight generation scheme         WeightScheme... mBecke (2022)
Basis function cutoff            BFCut       ... 1.0000e-10
Integration weight cutoff        WCut        ... 1.0000e-14
Partially contracted basis set               ... on
Rotationally invariant grid construction     ... off
Angular grids for H and He will be reduced by one unit

Total number of grid points                  ...    52201
Total number of batches                      ...      426
Average number of points per batch           ...      122
Average number of grid points per atom       ...     1305
UseSFitting                                  ... on

GRIDX 3
-------
General Integration Accuracy     IntAcc      ... 4.338
Radial Grid Type                 RadialGrid  ... OptM3 with GC (2021)
Angular Grid (max. ang.)         AngularGrid ... 3 (Lebedev-194)
Angular grid pruning method      GridPruning ... 4 (adaptive)
Weight generation scheme         WeightScheme... mBecke (2022)
Basis function cutoff            BFCut       ... 1.0000e-10
Integration weight cutoff        WCut        ... 1.0000e-14
Partially contracted basis set               ... on
Rotationally invariant grid construction     ... off
Angular grids for H and He will be reduced by one unit

Total number of grid points                  ...   114266
Total number of batches                      ...      912
Average number of points per batch           ...      125
Average number of grid points per atom       ...     2857
UseSFitting                                  ... on
Initializing property integral containers    ... done (  0.0 sec)

SHARK setup successfully completed in   9.0 seconds

Maximum memory used throughout the entire STARTUP-calculation: 49.1 MB


           ************************************************************
           *        Program running with 28 parallel MPI-processes    *
           *              working on a common directory               *
           ************************************************************
-------------------------------------------------------------------------------
                                 ORCA GUESS
                   Start orbitals & Density for SCF / CASSCF
-------------------------------------------------------------------------------

------------
SCF SETTINGS
------------
Hamiltonian:
 Density Functional     Method          .... DFT(GTOs)
 Exchange Functional    Exchange        .... WB97X-D3
 Correlation Functional Correlation     .... WB97X-D3
 Gradients option       PostSCFGGA      .... off
 Hybrid DFT is turned on
   Fraction HF Exchange ScalHFX         ....  0.195728
   Scaling of DF-GGA-X  ScalDFX         ....  0.000000
   Scaling of DF-GGA-C  ScalDFC         ....  1.000000
   Scaling of DF-LDA-C  ScalLDAC        ....  1.000000
   Perturbative correction              ....  0.000000
 Long-range corrected/Screened/Range-Separated Hybrid DFT is turned on
   Amount of maximum screened exact exchange              ....  0.804272
   Range separation parameter mu (erf(mu*r12)/r12)        ....  0.250000
 RI-approximation to the Coulomb term is turned on
   Number of AuxJ basis functions       .... 1276
   RIJ-COSX (HFX calculated with COS-X)).... on


General Settings:
 Integral files         IntName         .... honokiol_o2_11
 Hartree-Fock type      HFTyp           .... UHF
 Total Charge           Charge          ....   -1
 Multiplicity           Mult            ....    2
 Number of Electrons    NEL             ....  159
 Basis Dimension        Dim             ....  398
 Nuclear Repulsion      ENuc            ....   1632.6855587146 Eh

Convergence Acceleration:
 AO-DIIS                CNVDIIS         .... on
   Start iteration      DIISMaxIt       ....    12
   Startup error        DIISStart       ....  0.200000
   # of expansion vecs  DIISMaxEq       ....     5
   Bias factor          DIISBfac        ....   1.050
   Max. coefficient     DIISMaxC        ....  10.000
 MO-DIIS                CNVKDIIS        .... off
 Trust-Rad. Augm. Hess. CNVTRAH         .... off
 SOSCF                  CNVSOSCF        .... off
 Level Shifting         CNVShift        .... on
   Level shift para.    LevelShift      ....    0.2500
   Turn off err/grad.   ShiftErr        ....    0.0010
 Zerner damping         CNVZerner       .... off
 Static damping         CNVDamp         .... on
   Fraction old density DampFac         ....    0.7000
   Max. Damping (<1)    DampMax         ....    0.9800
   Min. Damping (>=0)   DampMin         ....    0.0000
   Turn off err/grad.   DampErr         ....    0.1000

SCF Procedure:
 Maximum # iterations   MaxIter         ....   125
 SCF integral mode      SCFMode         .... Direct
   Integral package                     .... SHARK and LIBINT hybrid scheme
 Reset frequency        DirectResetFreq ....    20
 Integral Threshold     Thresh          ....  1.000e-10 Eh
 Primitive CutOff       TCut            ....  1.000e-11 Eh

Convergence Tolerance:
 Convergence Check Mode ConvCheckMode   .... Total+1el-Energy
 Convergence forced     ConvForced      .... 0
 Energy Change          TolE            ....  1.000e-06 Eh
 1-El. energy change                    ....  1.000e-03 Eh
 DIIS Error             TolErr          ....  1.000e-05

------------------------------
INITIAL GUESS: MODEL POTENTIAL
------------------------------
Loading Hartree-Fock densities                     ... done
Calculating cut-offs                               ... done
Initializing the effective Hamiltonian             ... done
Setting up the integral package (SHARK)            ... done
Starting the Coulomb interaction                   ... done (   0.1 sec)
Making the grid                                    ... done (   0.9 sec)
Mapping shells                                     ... done
Starting the XC term evaluation                    ... done (   0.3 sec)
  promolecular density results
     # of electrons  =    157.994011418
     EX              =   -129.873470131
     EC              =     -5.255480438
     EX+EC           =   -135.128950569
Transforming the Hamiltonian                       ... done (   0.0 sec)
Diagonalizing the Hamiltonian                      ... done (   0.0 sec)
Back transforming the eigenvectors                 ... done (   0.1 sec)
Now organizing SCF variables                       ... done
                      ------------------
                      INITIAL GUESS DONE (   1.5 sec)
                      ------------------
             **** ENERGY FILE WAS UPDATED (honokiol_o2_11.en.tmp) ****
Finished Guess after   3.3 sec
Maximum memory used throughout the entire GUESS-calculation: 29.1 MB


           ************************************************************
           *        Program running with 28 parallel MPI-processes    *
           *              working on a common directory               *
           ************************************************************

-------------------------------------------------------------------------------------------
                                      ORCA LEAN-SCF
                              memory conserving SCF solver
-------------------------------------------------------------------------------------------

----------------------------------------D-I-I-S--------------------------------------------
Iteration    Energy (Eh)           Delta-E    RMSDP     MaxDP     DIISErr   Damp  Time(sec)
-------------------------------------------------------------------------------------------
               ***  Starting incremental Fock matrix formation  ***
    1    -995.9405954241735799     0.00e+00  1.04e-03  3.32e-02  9.21e-02  0.700   8.0
Warning: op=1 Small HOMO/LUMO gap (   0.016) - skipping pre-diagonalization
         Will do a full diagonalization
    2    -996.1382254212069256    -1.98e-01  8.15e-04  2.99e-02  5.37e-02  0.700   6.7
                               ***Turning on AO-DIIS***
    3    -996.2516793833349311    -1.13e-01  4.47e-04  1.68e-02  2.80e-02  0.700   6.1
    4    -996.3230288625820776    -7.13e-02  9.74e-04  3.85e-02  1.94e-02  0.000   6.2
    5    -996.4836919029319233    -1.61e-01  7.97e-05  4.43e-03  2.60e-03  0.000   6.1
    6    -996.4839827112130024    -2.91e-04  4.02e-05  2.88e-03  1.37e-03  0.000   6.0
    7    -996.4840481508106222    -6.54e-05  2.63e-05  2.20e-03  4.29e-04  0.000   6.1
               *** Restarting incremental Fock matrix formation ***
                             ****Resetting DIIS****
    8    -996.4840230634865748     2.51e-05  2.37e-05  1.93e-03  2.49e-04  0.000   8.6
    9    -996.4840308612981516    -7.80e-06  9.19e-06  7.04e-04  1.56e-04  0.000   7.7
   10    -996.4840326878249925    -1.83e-06  8.53e-06  7.27e-04  1.01e-04  0.000   7.6
   11    -996.4840336969371037    -1.01e-06  2.62e-06  1.75e-04  7.96e-05  0.000   7.6
   12    -996.4840339752443015    -2.78e-07  2.19e-06  1.64e-04  8.33e-05  0.000   5.6
                 **** Energy Check signals convergence ****

               *****************************************************
               *                     SUCCESS                       *
               *           SCF CONVERGED AFTER  12 CYCLES          *
               *****************************************************

Recomputing exchange energy using gridx3       ... done (    6.713 sec)
Old exchange energy                            :    -42.990424410 Eh
New exchange energy                            :    -42.990406081 Eh
Exchange energy change after final integration :      0.000018329 Eh
Total energy after final integration           :   -996.484015647 Eh
             **** ENERGY FILE WAS UPDATED (honokiol_o2_11.en.tmp) ****

----------------
TOTAL SCF ENERGY
----------------

Total Energy       :       -996.48401564664130 Eh          -27115.70860 eV

Components:
Nuclear Repulsion  :       1632.68555871463036 Eh           44427.63271 eV
Electronic Energy  :      -2629.16959268987466 Eh          -71543.34181 eV
One Electron Energy:      -4616.69863476816136 Eh         -125626.75659 eV
Two Electron Energy:       1987.52904207828669 Eh           54083.41478 eV

Virial components:
Potential Energy   :      -1983.16401255358323 Eh          -53964.63629 eV
Kinetic Energy     :        986.67999690694205 Eh           26848.92769 eV
Virial Ratio       :          2.00993637123529

DFT components:
N(Alpha)           :       80.000016424751 electrons
N(Beta)            :       79.000015691594 electrons
N(Total)           :      159.000032116345 electrons
E(XC)              :      -95.553713918468 Eh       

FOD:

 Fermi smearing  (ALPHA): E(HOMO(Eh)) = -0.036991 MUE =  0.065327 gap=   3.517 eV
 Fermi smearing   (BETA): E(HOMO(Eh)) =  0.019756 MUE =  0.074837 gap=   2.998 eV

 N_FOD(alpha) =  0.000000
 N_FOD(beta)  =  0.000000
 N_FOD        =  0.000000

---------------
SCF CONVERGENCE
---------------

  Last Energy change         ...    2.7831e-07  Tolerance :   1.0000e-06
  Last MAX-Density change    ...    1.6429e-04  Tolerance :   1.0000e-05
  Last RMS-Density change    ...    2.1911e-06  Tolerance :   1.0000e-06
  Last DIIS Error            ...    8.3350e-05  Tolerance :   1.0000e-05


----------------
ORBITAL ENERGIES
----------------
                 SPIN UP ORBITALS
  NO   OCC          E(Eh)            E(eV) 
   0   1.0000     -19.195964      -522.3487 
   1   1.0000     -19.127118      -520.4753 
   2   1.0000     -18.986210      -516.6410 
   3   1.0000     -18.983401      -516.5646 
   4   1.0000     -10.278331      -279.6876 
   5   1.0000     -10.233422      -278.4656 
   6   1.0000     -10.232478      -278.4399 
   7   1.0000     -10.230494      -278.3859 
   8   1.0000     -10.224175      -278.2139 
   9   1.0000     -10.223142      -278.1858 
  10   1.0000     -10.222943      -278.1804 
  11   1.0000     -10.222206      -278.1604 
  12   1.0000     -10.219083      -278.0754 
  13   1.0000     -10.212567      -277.8981 
  14   1.0000     -10.199854      -277.5521 
  15   1.0000     -10.195222      -277.4261 
  16   1.0000     -10.188918      -277.2546 
  17   1.0000     -10.188200      -277.2350 
  18   1.0000     -10.185270      -277.1553 
  19   1.0000     -10.183107      -277.0964 
  20   1.0000     -10.182062      -277.0680 
  21   1.0000     -10.157810      -276.4081 
  22   1.0000      -1.093380       -29.7524 
  23   1.0000      -1.037333       -28.2273 
  24   1.0000      -1.024467       -27.8772 
  25   1.0000      -0.896895       -24.4057 
  26   1.0000      -0.857977       -23.3467 
  27   1.0000      -0.840053       -22.8590 
  28   1.0000      -0.812532       -22.1101 
  29   1.0000      -0.788374       -21.4527 
  30   1.0000      -0.779433       -21.2095 
  31   1.0000      -0.747904       -20.3515 
  32   1.0000      -0.724335       -19.7102 
  33   1.0000      -0.712603       -19.3909 
  34   1.0000      -0.680276       -18.5113 
  35   1.0000      -0.654942       -17.8219 
  36   1.0000      -0.632042       -17.1987 
  37   1.0000      -0.601769       -16.3750 
  38   1.0000      -0.590753       -16.0752 
  39   1.0000      -0.577123       -15.7043 
  40   1.0000      -0.569078       -15.4854 
  41   1.0000      -0.553208       -15.0536 
  42   1.0000      -0.548993       -14.9389 
  43   1.0000      -0.527259       -14.3474 
  44   1.0000      -0.517777       -14.0894 
  45   1.0000      -0.495422       -13.4811 
  46   1.0000      -0.488955       -13.3052 
  47   1.0000      -0.478231       -13.0133 
  48   1.0000      -0.466176       -12.6853 
  49   1.0000      -0.462821       -12.5940 
  50   1.0000      -0.455076       -12.3832 
  51   1.0000      -0.449364       -12.2278 
  52   1.0000      -0.439541       -11.9605 
  53   1.0000      -0.431522       -11.7423 
  54   1.0000      -0.420763       -11.4496 
  55   1.0000      -0.409730       -11.1493 
  56   1.0000      -0.406995       -11.0749 
  57   1.0000      -0.399942       -10.8830 
  58   1.0000      -0.388885       -10.5821 
  59   1.0000      -0.384219       -10.4551 
  60   1.0000      -0.382045       -10.3960 
  61   1.0000      -0.371241       -10.1020 
  62   1.0000      -0.363090        -9.8802 
  63   1.0000      -0.358987        -9.7685 
  64   1.0000      -0.350225        -9.5301 
  65   1.0000      -0.341380        -9.2894 
  66   1.0000      -0.326225        -8.8770 
  67   1.0000      -0.321679        -8.7533 
  68   1.0000      -0.314075        -8.5464 
  69   1.0000      -0.313094        -8.5197 
  70   1.0000      -0.289646        -7.8817 
  71   1.0000      -0.285906        -7.7799 
  72   1.0000      -0.275383        -7.4936 
  73   1.0000      -0.262985        -7.1562 
  74   1.0000      -0.252231        -6.8636 
  75   1.0000      -0.231004        -6.2859 
  76   1.0000      -0.219884        -5.9834 
  77   1.0000      -0.175054        -4.7635 
  78   1.0000      -0.036991        -1.0066 
  79   1.0000       0.000700         0.0190 
  80   0.0000       0.129940         3.5359 
  81   0.0000       0.149666         4.0726 
  82   0.0000       0.165978         4.5165 
  83   0.0000       0.173056         4.7091 
  84   0.0000       0.202169         5.5013 
  85   0.0000       0.209125         5.6906 
  86   0.0000       0.211432         5.7533 
  87   0.0000       0.220589         6.0025 
  88   0.0000       0.239247         6.5102 
  89   0.0000       0.242472         6.5980 
  90   0.0000       0.254783         6.9330 

                 SPIN DOWN ORBITALS
  NO   OCC          E(Eh)            E(eV) 
   0   1.0000     -19.195964      -522.3487 
   1   1.0000     -19.127160      -520.4765 
   2   1.0000     -18.974562      -516.3241 
   3   1.0000     -18.971766      -516.2480 
   4   1.0000     -10.278331      -279.6876 
   5   1.0000     -10.233421      -278.4656 
   6   1.0000     -10.232478      -278.4399 
   7   1.0000     -10.230494      -278.3859 
   8   1.0000     -10.224175      -278.2139 
   9   1.0000     -10.223142      -278.1858 
  10   1.0000     -10.222941      -278.1804 
  11   1.0000     -10.222206      -278.1604 
  12   1.0000     -10.219086      -278.0755 
  13   1.0000     -10.212568      -277.8981 
  14   1.0000     -10.199853      -277.5521 
  15   1.0000     -10.195224      -277.4261 
  16   1.0000     -10.188920      -277.2546 
  17   1.0000     -10.188200      -277.2350 
  18   1.0000     -10.185272      -277.1553 
  19   1.0000     -10.183107      -277.0964 
  20   1.0000     -10.182064      -277.0681 
  21   1.0000     -10.157857      -276.4093 
  22   1.0000      -1.093381       -29.7524 
  23   1.0000      -1.024897       -27.8889 
  24   1.0000      -1.007842       -27.4248 
  25   1.0000      -0.896897       -24.4058 
  26   1.0000      -0.857994       -23.3472 
  27   1.0000      -0.840056       -22.8591 
  28   1.0000      -0.812537       -22.1103 
  29   1.0000      -0.788388       -21.4531 
  30   1.0000      -0.779434       -21.2095 
  31   1.0000      -0.747927       -20.3521 
  32   1.0000      -0.724359       -19.7108 
  33   1.0000      -0.712609       -19.3911 
  34   1.0000      -0.680287       -18.5115 
  35   1.0000      -0.654944       -17.8219 
  36   1.0000      -0.632063       -17.1993 
  37   1.0000      -0.601785       -16.3754 
  38   1.0000      -0.590751       -16.0751 
  39   1.0000      -0.577116       -15.7041 
  40   1.0000      -0.569082       -15.4855 
  41   1.0000      -0.552843       -15.0436 
  42   1.0000      -0.527277       -14.3479 
  43   1.0000      -0.518860       -14.1189 
  44   1.0000      -0.503205       -13.6929 
  45   1.0000      -0.495346       -13.4791 
  46   1.0000      -0.488933       -13.3045 
  47   1.0000      -0.478237       -13.0135 
  48   1.0000      -0.466177       -12.6853 
  49   1.0000      -0.462814       -12.5938 
  50   1.0000      -0.455081       -12.3834 
  51   1.0000      -0.449366       -12.2279 
  52   1.0000      -0.439518       -11.9599 
  53   1.0000      -0.431525       -11.7424 
  54   1.0000      -0.420744       -11.4490 
  55   1.0000      -0.409725       -11.1492 
  56   1.0000      -0.406978       -11.0744 
  57   1.0000      -0.399922       -10.8824 
  58   1.0000      -0.388803       -10.5799 
  59   1.0000      -0.384216       -10.4550 
  60   1.0000      -0.382048       -10.3961 
  61   1.0000      -0.371241       -10.1020 
  62   1.0000      -0.363057        -9.8793 
  63   1.0000      -0.358984        -9.7684 
  64   1.0000      -0.350214        -9.5298 
  65   1.0000      -0.341374        -9.2893 
  66   1.0000      -0.325926        -8.8689 
  67   1.0000      -0.321587        -8.7508 
  68   1.0000      -0.312924        -8.5151 
  69   1.0000      -0.289619        -7.8809 
  70   1.0000      -0.265632        -7.2282 
  71   1.0000      -0.263055        -7.1581 
  72   1.0000      -0.260969        -7.1013 
  73   1.0000      -0.251770        -6.8510 
  74   1.0000      -0.231005        -6.2860 
  75   1.0000      -0.224454        -6.1077 
  76   1.0000      -0.219781        -5.9805 
  77   1.0000      -0.175076        -4.7641 
  78   1.0000       0.019756         0.5376 
  79   0.0000       0.129914         3.5351 
  80   0.0000       0.149663         4.0725 
  81   0.0000       0.165976         4.5164 
  82   0.0000       0.172990         4.7073 
  83   0.0000       0.202158         5.5010 
  84   0.0000       0.209085         5.6895 
  85   0.0000       0.211427         5.7532 
  86   0.0000       0.220589         6.0025 
  87   0.0000       0.239247         6.5103 
  88   0.0000       0.242473         6.5980 
  89   0.0000       0.254784         6.9330 
*Only the first 10 virtual orbitals were printed.

                    ********************************
                    * MULLIKEN POPULATION ANALYSIS *
                    ********************************

------------------------------------------
FOD BASED MULLIKEN REDUCED ORBITAL CHARGES
------------------------------------------
  0 O s       :     0.000000  s :     0.000000
      pz      :     0.000000  p :     0.000000
      px      :    -0.000000
      py      :     0.000000
      dz2     :     0.000000  d :     0.000000
      dxz     :     0.000000
      dyz     :     0.000000
      dx2y2   :     0.000000
      dxy     :     0.000000

  1 O s       :    -0.000000  s :    -0.000000
      pz      :     0.000000  p :     0.000000
      px      :     0.000000
      py      :     0.000000
      dz2     :    -0.000000  d :     0.000000
      dxz     :     0.000000
      dyz     :     0.000000
      dx2y2   :     0.000000
      dxy     :     0.000000

  2 C s       :     0.000000  s :     0.000000
      pz      :     0.000000  p :     0.000000
      px      :    -0.000000
      py      :     0.000000
      dz2     :     0.000000  d :     0.000000
      dxz     :     0.000000
      dyz     :     0.000000
      dx2y2   :     0.000000
      dxy     :     0.000000

  3 C s       :     0.000000  s :     0.000000
      pz      :    -0.000000  p :     0.000000
      px      :     0.000000
      py      :     0.000000
      dz2     :     0.000000  d :     0.000000
      dxz     :     0.000000
      dyz     :     0.000000
      dx2y2   :     0.000000
      dxy     :     0.000000

  4 C s       :    -0.000000  s :    -0.000000
      pz      :     0.000000  p :     0.000000
      px      :     0.000000
      py      :     0.000000
      dz2     :     0.000000  d :     0.000000
      dxz     :     0.000000
      dyz     :     0.000000
      dx2y2   :     0.000000
      dxy     :     0.000000

  5 C s       :     0.000000  s :     0.000000
      pz      :     0.000000  p :     0.000000
      px      :     0.000000
      py      :     0.000000
      dz2     :     0.000000  d :     0.000000
      dxz     :     0.000000
      dyz     :     0.000000
      dx2y2   :     0.000000
      dxy     :     0.000000

  6 C s       :     0.000000  s :     0.000000
      pz      :     0.000000  p :     0.000000
      px      :     0.000000
      py      :     0.000000
      dz2     :     0.000000  d :     0.000000
      dxz     :     0.000000
      dyz     :     0.000000
      dx2y2   :     0.000000
      dxy     :     0.000000

  7 C s       :     0.000000  s :     0.000000
      pz      :     0.000000  p :     0.000000
      px      :    -0.000000
      py      :     0.000000
      dz2     :     0.000000  d :     0.000000
      dxz     :     0.000000
      dyz     :     0.000000
      dx2y2   :     0.000000
      dxy     :     0.000000

  8 C s       :     0.000000  s :     0.000000
      pz      :     0.000000  p :     0.000000
      px      :     0.000000
      py      :     0.000000
      dz2     :     0.000000  d :     0.000000
      dxz     :     0.000000
      dyz     :     0.000000
      dx2y2   :     0.000000
      dxy     :     0.000000

  9 C s       :     0.000000  s :     0.000000
      pz      :    -0.000000  p :     0.000000
      px      :     0.000000
      py      :     0.000000
      dz2     :     0.000000  d :     0.000000
      dxz     :     0.000000
      dyz     :     0.000000
      dx2y2   :     0.000000
      dxy     :     0.000000

 10 C s       :     0.000000  s :     0.000000
      pz      :     0.000000  p :     0.000000
      px      :     0.000000
      py      :     0.000000
      dz2     :     0.000000  d :     0.000000
      dxz     :     0.000000
      dyz     :     0.000000
      dx2y2   :     0.000000
      dxy     :     0.000000

 11 C s       :    -0.000000  s :    -0.000000
      pz      :     0.000000  p :     0.000000
      px      :     0.000000
      py      :     0.000000
      dz2     :     0.000000  d :     0.000000
      dxz     :     0.000000
      dyz     :     0.000000
      dx2y2   :     0.000000
      dxy     :     0.000000

 12 C s       :    -0.000000  s :    -0.000000
      pz      :    -0.000000  p :     0.000000
      px      :    -0.000000
      py      :     0.000000
      dz2     :     0.000000  d :     0.000000
      dxz     :     0.000000
      dyz     :     0.000000
      dx2y2   :    -0.000000
      dxy     :     0.000000

 13 C s       :     0.000000  s :     0.000000
      pz      :     0.000000  p :     0.000000
      px      :     0.000000
      py      :     0.000000
      dz2     :     0.000000  d :     0.000000
      dxz     :     0.000000
      dyz     :     0.000000
      dx2y2   :     0.000000
      dxy     :     0.000000

 14 C s       :     0.000000  s :     0.000000
      pz      :    -0.000000  p :     0.000000
      px      :     0.000000
      py      :     0.000000
      dz2     :     0.000000  d :     0.000000
      dxz     :    -0.000000
      dyz     :     0.000000
      dx2y2   :     0.000000
      dxy     :     0.000000

 15 C s       :    -0.000000  s :    -0.000000
      pz      :     0.000000  p :     0.000000
      px      :     0.000000
      py      :     0.000000
      dz2     :     0.000000  d :     0.000000
      dxz     :     0.000000
      dyz     :     0.000000
      dx2y2   :     0.000000
      dxy     :     0.000000

 16 C s       :     0.000000  s :     0.000000
      pz      :     0.000000  p :     0.000000
      px      :     0.000000
      py      :     0.000000
      dz2     :     0.000000  d :     0.000000
      dxz     :     0.000000
      dyz     :     0.000000
      dx2y2   :     0.000000
      dxy     :     0.000000

 17 C s       :     0.000000  s :     0.000000
      pz      :    -0.000000  p :     0.000000
      px      :     0.000000
      py      :     0.000000
      dz2     :     0.000000  d :     0.000000
      dxz     :     0.000000
      dyz     :     0.000000
      dx2y2   :    -0.000000
      dxy     :     0.000000

 18 C s       :    -0.000000  s :    -0.000000
      pz      :     0.000000  p :     0.000000
      px      :     0.000000
      py      :     0.000000
      dz2     :     0.000000  d :     0.000000
      dxz     :     0.000000
      dyz     :     0.000000
      dx2y2   :     0.000000
      dxy     :     0.000000

 19 C s       :    -0.000000  s :    -0.000000
      pz      :     0.000000  p :     0.000000
      px      :     0.000000
      py      :     0.000000
      dz2     :     0.000000  d :     0.000000
      dxz     :     0.000000
      dyz     :     0.000000
      dx2y2   :     0.000000
      dxy     :     0.000000

 20 H s       :     0.000000  s :     0.000000
      pz      :     0.000000  p :     0.000000
      px      :     0.000000
      py      :     0.000000

 21 H s       :     0.000000  s :     0.000000
      pz      :     0.000000  p :     0.000000
      px      :     0.000000
      py      :     0.000000

 22 H s       :     0.000000  s :     0.000000
      pz      :    -0.000000  p :     0.000000
      px      :     0.000000
      py      :     0.000000

 23 H s       :     0.000000  s :     0.000000
      pz      :    -0.000000  p :     0.000000
      px      :     0.000000
      py      :     0.000000

 24 H s       :     0.000000  s :     0.000000
      pz      :     0.000000  p :     0.000000
      px      :    -0.000000
      py      :     0.000000

 25 H s       :     0.000000  s :     0.000000
      pz      :     0.000000  p :     0.000000
      px      :     0.000000
      py      :     0.000000
[...]
      dxy     :     0.000000

 18 C s       :    -0.000000  s :    -0.000000
      pz      :     0.000010  p :     0.000010
      px      :     0.000000
      py      :    -0.000000
      dz2     :    -0.000000  d :     0.000000
      dxz     :    -0.000000
      dyz     :     0.000000
      dx2y2   :    -0.000000
      dxy     :     0.000000

 19 C s       :     0.000000  s :     0.000000
      pz      :    -0.000000  p :     0.000001
      px      :     0.000001
      py      :     0.000000
      dz2     :    -0.000000  d :    -0.000000
      dxz     :    -0.000000
      dyz     :    -0.000000
      dx2y2   :    -0.000000
      dxy     :    -0.000000

 20 H s       :    -0.000002  s :    -0.000002
      pz      :    -0.000001  p :    -0.000010
      px      :    -0.000003
      py      :    -0.000006

 21 H s       :    -0.000005  s :    -0.000005
      pz      :     0.000002  p :     0.000003
      px      :    -0.000000
      py      :     0.000001

 22 H s       :    -0.000010  s :    -0.000010
      pz      :    -0.000001  p :    -0.000003
      px      :     0.000000
      py      :    -0.000002

 23 H s       :     0.000003  s :     0.000003
      pz      :    -0.000000  p :    -0.000001
      px      :    -0.000000
      py      :    -0.000000

 24 H s       :     0.000011  s :     0.000011
      pz      :    -0.000003  p :    -0.000004
      px      :    -0.000001
      py      :    -0.000000

 25 H s       :    -0.000000  s :    -0.000000
      pz      :     0.000000  p :     0.000000
      px      :     0.000000
      py      :     0.000000

 26 H s       :    -0.000002  s :    -0.000002
      pz      :     0.000000  p :     0.000000
      px      :    -0.000000
      py      :     0.000000

 27 H s       :    -0.000004  s :    -0.000004
      pz      :     0.000002  p :     0.000004
      px      :     0.000000
      py      :     0.000002

 28 H s       :    -0.001418  s :    -0.001418
      pz      :    -0.000329  p :    -0.000464
      px      :    -0.000092
      py      :    -0.000043

 29 H s       :     0.000002  s :     0.000002
      pz      :    -0.000001  p :    -0.000002
      px      :    -0.000000
      py      :    -0.000001

 30 H s       :    -0.000000  s :    -0.000000
      pz      :    -0.000000  p :     0.000000
      px      :    -0.000000
      py      :     0.000000

 31 H s       :     0.000000  s :     0.000000
      pz      :    -0.000000  p :    -0.000000
      px      :    -0.000000
      py      :    -0.000000

 32 H s       :    -0.000000  s :    -0.000000
      pz      :     0.000000  p :     0.000000
      px      :    -0.000000
      py      :     0.000000

 33 H s       :    -0.007275  s :    -0.007275
      pz      :     0.000635  p :     0.006776
      px      :     0.000240
      py      :     0.005901

 34 H s       :     0.000001  s :     0.000001
      pz      :     0.000000  p :     0.000000
      px      :     0.000000
      py      :    -0.000000

 35 H s       :    -0.000003  s :    -0.000003
      pz      :    -0.000000  p :    -0.000000
      px      :     0.000000
      py      :    -0.000000

 36 H s       :    -0.000000  s :    -0.000000
      pz      :    -0.000000  p :     0.000000
      px      :     0.000000
      py      :     0.000000

 37 H s       :    -0.000000  s :    -0.000000
      pz      :     0.000000  p :     0.000000
      px      :     0.000000
      py      :    -0.000000

 38 O s       :     0.008349  s :     0.008349
      pz      :     0.014434  p :     0.639305
      px      :     0.056122
      py      :     0.568749
      dz2     :     0.000045  d :     0.001244
      dxz     :    -0.000012
      dyz     :     0.000331
      dx2y2   :     0.000363
      dxy     :     0.000517

 39 O s       :     0.007211  s :     0.007211
      pz      :     0.009305  p :     0.346072
      px      :     0.022602
      py      :     0.314165
      dz2     :    -0.000034  d :     0.002963
      dxz     :     0.000140
      dyz     :     0.001364
      dx2y2   :     0.000396
      dxy     :     0.001096



                      *****************************
                      * MAYER POPULATION ANALYSIS *
                      *****************************

  NA   - Mulliken gross atomic population
  ZA   - Total nuclear charge
  QA   - Mulliken gross atomic charge
  VA   - Mayer's total valence
  BVA  - Mayer's bonded valence
  FA   - Mayer's free valence

  ATOM       NA         ZA         QA         VA         BVA        FA
  0 O      8.1933     8.0000    -0.1933     2.2367     2.2367     0.0000
  1 O      8.4452     8.0000    -0.4452     2.0811     2.0811     0.0000
  2 C      5.9693     6.0000     0.0307     3.8259     3.8259     0.0000
  3 C      5.9902     6.0000     0.0098     3.7384     3.7384     0.0000
  4 C      6.1854     6.0000    -0.1854     3.8764     3.8764     0.0000
  5 C      6.0421     6.0000    -0.0421     3.8815     3.8815     0.0000
  6 C      6.0727     6.0000    -0.0727     3.8801     3.8801     0.0000
  7 C      6.0654     6.0000    -0.0654     3.8756     3.8756     0.0000
  8 C      5.8857     6.0000     0.1143     4.0191     4.0191     0.0000
  9 C      6.0318     6.0000    -0.0318     3.8356     3.8356     0.0000
 10 C      5.7796     6.0000     0.2204     4.1036     4.1036     0.0000
 11 C      5.8484     6.0000     0.1516     3.9111     3.9111     0.0000
 12 C      5.8708     6.0000     0.1292     3.8768     3.8768     0.0000
 13 C      6.0549     6.0000    -0.0549     3.8942     3.8942     0.0000
 14 C      6.1393     6.0000    -0.1393     3.7931     3.7931     0.0000
 15 C      6.0919     6.0000    -0.0919     3.7925     3.7925     0.0000
 16 C      6.0983     6.0000    -0.0983     4.0849     4.0849     0.0000
 17 C      6.0995     6.0000    -0.0995     4.0642     4.0642     0.0000
 18 C      6.0678     6.0000    -0.0678     3.9603     3.9603     0.0000
 19 C      6.0805     6.0000    -0.0805     3.9517     3.9517     0.0000
 20 H      1.0430     1.0000    -0.0430     1.0129     1.0129     0.0000
 21 H      1.0050     1.0000    -0.0050     1.0132     1.0132     0.0000
 22 H      1.0314     1.0000    -0.0314     0.9868     0.9868     0.0000
 23 H      1.0154     1.0000    -0.0154     0.9815     0.9815     0.0000
 24 H      0.9840     1.0000     0.0160     1.0088     1.0088     0.0000
 25 H      0.9890     1.0000     0.0110     0.9883     0.9883     0.0000
 26 H      0.9732     1.0000     0.0268     0.9904     0.9904     0.0000
 27 H      1.0232     1.0000    -0.0232     0.9902     0.9902     0.0000
 28 H      1.0217     1.0000    -0.0217     1.0648     1.0648     0.0000
 29 H      1.0343     1.0000    -0.0343     0.9922     0.9922     0.0000
 30 H      0.9995     1.0000     0.0005     0.9844     0.9844     0.0000
 31 H      0.9744     1.0000     0.0256     0.9868     0.9868     0.0000
 32 H      0.8329     1.0000     0.1671     1.0177     1.0177     0.0000
 33 H      0.7498     1.0000     0.2502     1.0708     1.0707     0.0001
 34 H      0.9925     1.0000     0.0075     0.9755     0.9755     0.0000
 35 H      0.9571     1.0000     0.0429     1.0055     1.0055     0.0000
 36 H      0.9628     1.0000     0.0372     0.9792     0.9792     0.0000
 37 H      0.9665     1.0000     0.0335     0.9890     0.9890     0.0000
 38 O      8.2507     8.0000    -0.2507     1.8903     1.4621     0.4283
 39 O      8.1815     8.0000    -0.1815     2.2146     2.0801     0.1346

  Mayer bond orders larger than 0.100000
B(  0-O ,  8-C ) :   1.1932 B(  0-O , 32-H ) :   0.9686 B(  1-O , 10-C ) :   1.5350 
B(  1-O , 33-H ) :   0.3364 B(  2-C ,  3-C ) :   0.9830 B(  2-C ,  7-C ) :   1.4250 
B(  2-C ,  8-C ) :   1.3314 B(  3-C ,  5-C ) :   1.3275 B(  3-C ,  9-C ) :   1.3392 
B(  4-C ,  5-C ) :   1.4666 B(  4-C , 10-C ) :   1.2289 B(  4-C , 11-C ) :   1.0328 
B(  5-C , 20-H ) :   0.9819 B(  6-C ,  7-C ) :   1.3377 B(  6-C , 12-C ) :   1.0164 
B(  6-C , 13-C ) :   1.4245 B(  7-C , 21-H ) :   0.9907 B(  8-C , 15-C ) :   1.3636 
B(  9-C , 14-C ) :   1.4215 B(  9-C , 22-H ) :   0.9829 B( 10-C , 14-C ) :   1.2558 
B( 11-C , 16-C ) :   1.0406 B( 11-C , 23-H ) :   0.9282 B( 11-C , 24-H ) :   0.9222 
B( 12-C , 17-C ) :   1.0400 B( 12-C , 25-H ) :   0.9289 B( 12-C , 26-H ) :   0.9374 
B( 13-C , 15-C ) :   1.3511 B( 13-C , 27-H ) :   0.9850 B( 14-C , 28-H ) :   0.9696 
B( 15-C , 29-H ) :   0.9783 B( 16-C , 18-C ) :   2.0238 B( 16-C , 30-H ) :   0.9608 
B( 17-C , 19-C ) :   1.9989 B( 17-C , 31-H ) :   0.9647 B( 18-C , 34-H ) :   0.9578 
B( 18-C , 35-H ) :   0.9506 B( 19-C , 36-H ) :   0.9587 B( 19-C , 37-H ) :   0.9620 
B( 33-H , 39-O ) :   0.7011 B( 38-O , 39-O ) :   1.3552 

-------
TIMINGS
-------

Total SCF time: 0 days 0 hours 0 min 13 sec 

Total time                  ....      13.307 sec
Sum of individual times     ....      13.253 sec  ( 99.6%)

SCF preparation             ....       1.090 sec  (  8.2%)
Fock matrix formation       ....      10.865 sec  ( 81.6%)
  Startup                   ....       0.034 sec  (  0.3% of F)
  Split-RI-J                ....       0.540 sec  (  5.0% of F)
  Chain of spheres X        ....       9.309 sec  ( 85.7% of F)
  XC integration            ....       0.858 sec  (  7.9% of F)
    XC Preparation          ....       0.000 sec  (  0.0% of XC)
    Basis function eval.    ....       0.183 sec  ( 21.4% of XC)
    Density eval.           ....       0.192 sec  ( 22.3% of XC)
    XC-Functional eval.     ....       0.068 sec  (  7.9% of XC)
    XC-Potential eval.      ....       0.182 sec  ( 21.2% of XC)
Diagonalization             ....       0.000 sec  (  0.0%)
Density matrix formation    ....       0.237 sec  (  1.8%)
Total Energy calculation    ....       0.049 sec  (  0.4%)
Population analysis         ....       0.188 sec  (  1.4%)
Orbital Transformation      ....       0.142 sec  (  1.1%)
Orbital Orthonormalization  ....       0.000 sec  (  0.0%)
DIIS solution               ....       0.682 sec  (  5.1%)
Finished LeanSCF after  13.5 sec

Maximum memory used throughout the entire LEANSCF-calculation: 55.8 MB


-------------------------------------------------------------------------------
                          DFT DISPERSION CORRECTION                            
                                                                               
                              DFTD3 V3.1  Rev 1                                
                              USING zero damping                               
-------------------------------------------------------------------------------
The omegaB97X-D3 functional is recognized. Fit by Chai et al.
Active option DFTDOPT                   ...         3   

molecular C6(AA) [au] = 17884.456516 


            DFT-D V3
 parameters
 s6 scaling factor         :     1.0000 
 rs6 scaling factor        :     1.2810 
 s8 scaling factor         :     1.0000 
 rs8 scaling factor        :     1.0940 
 Damping factor alpha6     :    14.0000 
 Damping factor alpha8     :    16.0000 
 ad hoc parameters k1-k3   :    16.0000     1.3333    -4.0000 

 Edisp/kcal,au: -10.825445212523  -0.017251443214 
 E6   /kcal   :  -5.071553324 
 E8   /kcal   :  -5.753891889 
 % E8         :  53.151549666 

-------------------------   ----------------
Dispersion correction           -0.017251443
-------------------------   ----------------


-------------------------   --------------------
FINAL SINGLE POINT ENERGY      -996.553015781015
-------------------------   --------------------

                                *** OPTIMIZATION RUN DONE ***



           ************************************************************
           *        Program running with 28 parallel MPI-processes    *
           *              working on a common directory               *
           ************************************************************

------------------------------------------------------------------------------
                              ORCA PROPERTY CALCULATIONS
------------------------------------------------------------------------------

GBWName                                 ... honokiol_o2_11.gbw
Number of atoms                         ...     40
Number of basis functions               ...    398
Max core memory                         ...   3500 MB

Electric properties:
Dipole moment                           ... YES
Quadrupole moment                       ...  NO
Static polarizability (Dipole/Dipole)   ...  NO
Static polarizability (Dipole/Quad.)    ...  NO
Static polarizability (Quad./Quad.)     ...  NO
Static polarizability (Velocity)        ...  NO

Atomic electric properties:
Dipole moment                           ...  NO
Quadrupole moment                       ...  NO
Static polarizability                   ...  NO

Choice of electric origin               ... Center of mass
Position of electric origin             ...    -0.874805    -0.578277     0.627228

General magnetic properties:
Magnetizability                         ...  NO

EPR properties:
g-Tensor (aka g-matrix)                 ...  NO
Zero-Field splitting spin-orbit         ...  NO
Zero-field splitting spin-spin          ...  NO
Hyperfine couplings                     ...  NO (   0 nuclei)
Quadrupole couplings                    ...  NO (   0 nuclei)
Contact density                         ...  NO (   0 nuclei)

NMR properties:
Chemical shifts                         ...  NO (   0 nuclei)
Spin-rotation constants                 ...  NO (   0 nuclei)
Spin-spin couplings                     ...  NO (   0 nuclei,    0 pairs)

Choice of magnetic origin               ... GIAO
Position of magnetic origin             ...     0.000000     0.000000     0.000000

Properties with geometric perturbations:
SCF Hessian                             ...  NO
IR spectrum                             ...  NO
VCD spectrum                            ...  NO
X-ray spectroscopy properties:
SCF XES/XAS/RIXS spectra                ...  NO


-------------
DIPOLE MOMENT
-------------

Method             : SCF
Type of density    : Electron Density
Multiplicity       :   2
Irrep              :   0
Energy             :  -996.5357643378017656 Eh
Relativity type    : 
Basis              : AO
                                X                 Y                 Z
Electronic contribution:     -5.540949516       2.180441115       3.025358866
Nuclear contribution   :     10.078342080      -0.469283717      -5.893509626
                        -----------------------------------------
Total Dipole Moment    :      4.537392563       1.711157398      -2.868150760
                        -----------------------------------------
Magnitude (a.u.)       :      5.634028727
Magnitude (Debye)      :     14.320562950



--------------------
Rotational spectrum 
--------------------
 
Rotational constants in cm-1:             0.013011             0.004579             0.003620 
Rotational constants in MHz :           390.047347           137.275151           108.519162 

Dipole components along the rotational axes: 
x,y,z [a.u.] :     5.055675     2.474999    -0.238347 
x,y,z [Debye]:    12.850504     6.290949    -0.605831 

 

Dipole moment calculation done in   0.1 sec 

Maximum memory used throughout the entire PROP-calculation: 26.6 MB

--------------------------------
SUGGESTED CITATIONS FOR THIS RUN
--------------------------------

Below you find a list of papers that are relevant to this ORCA run
We neither can nor want to force you to cite these papers, but we appreciate if you do
You receive ORCA, which is the product of decades of hard work by many enthusiastic individuals, for free
The only thing we kindly ask in return is that you cite our papers,
We deeply appreciate it, if you show your appreciation for ORCA by not just citing the generic ORCA reference.

Please note that relegating all ORCA citations to the supporting information does *not* help us.
SI sections are not indexed - citations you put there will not count into any citation statistics
But we need these citations in order to attract the funding resources that allow us to do what we are doing

Therefore, if you are a happy ORCA user, please consider citing a few of the papers listed below in the main body of your paper

In addition to the list printed below, the program has created the file honokiol_o2_11.bibtex that contains the list in bibtex format
You can import this file easily into all common literature databanks and citation aid programs


List of essential papers. We consider these as the minimum necessary citations

  1. Neese,F.
     Software update: the ORCA program system, version 5.0
     WIRES Comput. Molec. Sci., 2022 12(1)e1606
     doi.org/10.1002/wcms.1606

List of papers to cite with high priority. The work reported in these papers was absolutely
necessary for this run to complete.
Our perspective: the developers of density functionals and basis sets usually get cited in chemistry papers
Good! But without the algorithms to do something with them, the functionals or basis sets would not do anything.
Hence, in our opinion, the algorithm design and method developments papers are equally worthy of getting cited

  1. Neese,F.
     An improvement of the resolution of the identity approximation for the formation of the Coulomb matrix
     J. Comp. Chem., 2003 24(14)1740-1747
     doi.org/10.1002/jcc.10318
  2. Neese,F.; Wennmohs,F.; Hansen,A.; Becker,U.
     Efficient, approximate and parallel Hartree-Fock and hybrid DFT calculations. A 'chain-of-spheres' algorithm for the Hartree-Fock exchange
     Chem. Phys., 2009 356(1-3)98-109
     doi.org/10.1016/j.chemphys.2008.10.036
  3. Helmich-Paris,B.; de Souza,B.; Neese,F.; Izsák,R.
     An improved chain of spheres for exchange algorithm
     J. Chem. Phys., 2021 155 104109
     doi.org/doi: 10.1063/5.0058766.
  4. Neese,F.
     The SHARK Integral Generation and Digestion System
     J. Comp. Chem., 2022  1-16
     doi.org/10.1002/jcc.26942
  5. Grimme,S.; Antony,J.; Ehrlich,S.; Krieg,H.
     A consistent and accurate ab initio parametrization of density functional dispersion correction (DFT-D) for the 94 elements H-Pu
     J. Chem. Phys., 2010 132 154104
     doi.org/10.1063/1.3382344

List of suggested additional citations. These are papers that are important in the 'surrounding' of 
of this run, or papers that preceded the highly important papers. If you like your results we are grateful for a citation.

  1. Izsak,R.; Neese,F.
     An overlap fitted chain of spheres exchange method
     J. Chem. Phys., 2011 135 144105
     doi.org/10.1063/1.3646921
  2. Izsak,R.; Hansen,A.; Neese,F.
     The resolution of identity and chain of spheres approximations for the LPNO-CCSD singles Fock term
     Molec. Phys., 2012 110 2413-2417
     doi.org/10.1080/00268976.2012.687466
  3. Neese,F.
     The ORCA program system
     WIRES Comput. Molec. Sci., 2012 2(1)73-78
     doi.org/10.1002/wcms.81
  4. Izsak,R.; Neese,F.; Klopper,W.
     Robust fitting techniques in the chain of spheres approximation to the Fock exchange: The role of the complementary space
     J. Chem. Phys., 2013 139 
     doi.org/10.1063/1.4819264
  5. Neese,F.
     Software update: the ORCA program system, version 4.0
     WIRES Comput. Molec. Sci., 2018 8(1)1-6
     doi.org/10.1002/wcms.1327
  6. Neese,F.; Wennmohs,F.; Becker,U.; Riplinger,C.
     The ORCA quantum chemistry program package
     J. Chem. Phys., 2020 152 Art. No. L224108
     doi.org/10.1063/5.0004608

Timings for individual modules:

Sum of individual times          ...     2015.160 sec (=  33.586 min)
Startup calculation              ...      180.144 sec (=   3.002 min)   8.9 %
SCF iterations                   ...     1355.609 sec (=  22.593 min)  67.3 %
Property calculations            ...        1.180 sec (=   0.020 min)   0.1 %
SCF Gradient evaluation          ...      477.570 sec (=   7.959 min)  23.7 %
Geometry relaxation              ...        0.658 sec (=   0.011 min)   0.0 %
                             ****ORCA TERMINATED NORMALLY****
TOTAL RUN TIME: 0 days 0 hours 34 minutes 18 seconds 324 msec
