40
 Atoms. Timestep: 200016
O 0.17169 2.05725 -1.80272
O -4.09357 -1.39903 1.23266
C 1.05035 0.444506 -0.274697
C -0.305395 -0.008963 0.123537
C -2.60471 -0.656007 -0.45342
C -1.33946 -0.192201 -0.812935
C 3.49412 0.268234 0.005916
C 2.187 -0.132062 0.311259
C 1.25772 1.47238 -1.22471
C -0.586309 -0.30619 1.46633
C -2.85416 -0.945741 0.902383
C -3.71693 -0.800485 -1.46975
C 4.67964 -0.392949 0.686038
C 3.66369 1.28446 -0.938877
C -1.84297 -0.770883 1.85232
C 2.55644 1.87872 -1.54619
C -4.63815 0.394721 -1.45695
C 4.6667 -1.89288 0.565789
C -5.92081 0.372055 -1.08833
C 4.6241 -2.74581 1.5929
H -1.14861 0.030136 -1.86322
H 2.04281 -0.949452 1.02155
H 0.182952 -0.156 2.22669
H -3.26638 -0.903905 -2.47151
H -4.29679 -1.71395 -1.26747
H 5.60741 0.003244 0.237321
H 4.70509 -0.115308 1.75487
H 4.66929 1.61904 -1.20833
H -2.04661 -0.992006 2.90519
H 2.69827 2.67735 -2.28197
H -4.17593 1.34601 -1.75068
H 4.67321 -2.28492 -0.459296
H 0.470608 2.7632 -2.39045
H -4.13363 -1.55431 2.18514
H -6.53208 1.27926 -1.08624
H -6.40214 -0.556626 -0.765117
H 4.60897 -3.8286 1.43968
H 4.60538 -2.38987 2.62898
O 1.60665 -2.26846 3.19571
O 1.89222 -1.26187 3.77424
