# vtk DataFile Version 1.0
Cube
ASCII

DATASET POLYDATA
POINTS 72 float
4.584776 6.132356 4.604131
1.065966 3.341955 7.197063
4.304381 4.830499 4.831189
1.257815 4.657423 7.037956
0.661430 5.240220 7.449809
2.289509 5.198304 6.298776
2.368310 6.120292 6.212594
3.211217 4.359683 5.682240
3.026167 2.983584 5.854605
3.618694 2.378825 5.470099
1.961069 2.533185 6.597100
1.851319 1.614755 6.690741
0.324680 6.132356 3.682642
3.843491 3.341955 1.089711
0.605075 4.830499 3.455584
3.651641 4.657423 1.248817
4.248026 5.240220 0.836964
2.619947 5.198304 1.987997
2.541147 6.120292 2.074179
1.698239 4.359683 2.604533
1.883289 2.983584 2.432168
1.290762 2.378825 2.816674
2.948387 2.533185 1.689673
3.058137 1.614755 1.596033
0.324680 9.334644 3.682642
3.843491 12.125045 1.089711
0.605075 10.636501 3.455584
3.651641 10.809577 1.248817
4.248026 10.226780 0.836964
2.619947 10.268696 1.987997
2.541147 9.346708 2.074179
1.698239 11.107317 2.604533
1.883289 12.483416 2.432168
1.290762 13.088175 2.816674
2.948387 12.933815 1.689673
3.058137 13.852245 1.596033
4.584776 9.334644 4.604131
1.065966 12.125045 7.197063
4.304381 10.636501 4.831189
1.257815 10.809577 7.037956
0.661430 10.226780 7.449809
2.289509 10.268696 6.298776
2.368310 9.346708 6.212594
3.211217 11.107317 5.682240
3.026167 12.483416 5.854605
3.618694 13.088175 5.470099
1.961069 12.933815 6.597100
1.851319 13.852245 6.690741
4.527295 7.733500 5.833391
4.794229 7.733500 7.721615
0.115227 7.733500 0.565158
0.382161 7.733500 2.453382
0.000000 2.499467 0.000000
-0.369344 2.499467 8.286773
5.278800 2.499467 0.000000
4.909456 2.499467 8.286773
0.000000 0.581559 0.000000
-0.369344 0.581559 8.286773
5.278800 0.581559 0.000000
4.909456 0.581559 8.286773
0.000000 14.885441 0.000000
-0.369344 14.885441 8.286773
5.278800 14.885441 0.000000
4.909456 14.885441 8.286773
0.000000 12.967533 0.000000
-0.369344 12.967533 8.286773
5.278800 12.967533 0.000000
4.909456 12.967533 8.286773
-0.184672 3.994043 4.143387
5.094128 3.994043 4.143387
-0.184672 11.472957 4.143387
5.094128 11.472957 4.143387
POINT_DATA 72
SCALARS my_scalars float
LOOKUP_TABLE default
1.55
1.55
1.7
1.7
1.09
1.7
1.09
1.7
1.7
1.09
1.7
1.09
1.55
1.55
1.7
1.7
1.09
1.7
1.09
1.7
1.7
1.09
1.7
1.09
1.55
1.55
1.7
1.7
1.09
1.7
1.09
1.7
1.7
1.09
1.7
1.09
1.55
1.55
1.7
1.7
1.09
1.7
1.09
1.7
1.7
1.09
1.7
1.09
1.4
1.55
1.7
1.4
1.4
1.4
1.4
1.4
1.55
1.55
1.55
1.55
1.7
1.7
1.7
1.7
1.4
1.4
1.4
1.4
1.55
1.55
1.55
1.55
VECTORS vectors float
0 0 0
0 0 0
0.3125 0 0
0.3125 0 0
0.25 0 0
0.3125 0 0
0.25 0 0
0.3125 0 0
0.3125 0 0
0.25 0 0
0.3125 0 0
0.25 0 0
0 0 0
0 0 0
0.3125 0 0
0.3125 0 0
0.25 0 0
0.3125 0 0
0.25 0 0
0.3125 0 0
0.3125 0 0
0.25 0 0
0.3125 0 0
0.25 0 0
0 0 0
0 0 0
0.3125 0 0
0.3125 0 0
0.25 0 0
0.3125 0 0
0.25 0 0
0.3125 0 0
0.3125 0 0
0.25 0 0
0.3125 0 0
0.25 0 0
0 0 0
0 0 0
0.3125 0 0
0.3125 0 0
0.25 0 0
0.3125 0 0
0.25 0 0
0.3125 0 0
0.3125 0 0
0.25 0 0
0.3125 0 0
0.25 0 0
0.4375 0 0
0 0 0
0.3125 0 0
0.4375 0 0
0.4375 0 0
0.4375 0 0
0.4375 0 0
0.4375 0 0
0 0 0
0 0 0
0 0 0
0 0 0
0.3125 0 0
0.3125 0 0
0.3125 0 0
0.3125 0 0
0.4375 0 0
0.4375 0 0
0.4375 0 0
0.4375 0 0
0 0 0
0 0 0
0 0 0
0 0 0
