
                                 *****************
                                 * O   R   C   A *
                                 *****************

                                            #,                                       
                                            ###                                      
                                            ####                                     
                                            #####                                    
                                            ######                                   
                                           ########,                                 
                                     ,,################,,,,,                         
                               ,,#################################,,                 
                          ,,##########################################,,             
                       ,#########################################, ''#####,          
                    ,#############################################,,   '####,        
                  ,##################################################,,,,####,       
                ,###########''''           ''''###############################       
              ,#####''   ,,,,##########,,,,          '''####'''          '####       
            ,##' ,,,,###########################,,,                        '##       
           ' ,,###''''                  '''############,,,                           
         ,,##''                                '''############,,,,        ,,,,,,###''
      ,#''                                            '''#######################'''  
     '                                                          ''''####''''         
             ,#######,   #######,   ,#######,      ##                                
            ,#'     '#,  ##    ##  ,#'     '#,    #''#        ,####,   ,####,        
            ##       ##  ##   ,#'  ##            #'  '#       #'       #'  '#        
            ##       ##  #######   ##           ,######,      #####,   #    #        
            '#,     ,#'  ##    ##  '#,     ,#' ,#      #,     #,   #   #,  ,#        
             '#######'   ##     ##  '#######'  #'      '#     '####' # '####'        



                #########################################################
                #                        -***-                          #
                #          Department of theory and spectroscopy        #
                #                                                       #
                #                      Frank Neese                      #
                #                                                       #
                #     Directorship, Architecture, Infrastructure        #
                #                    SHARK, DRIVERS                     #
                #        Core code/Algorithms in most modules           #
                #                                                       #
                #        Max Planck Institute fuer Kohlenforschung      #
                #                Kaiser Wilhelm Platz 1                 #
                #                 D-45470 Muelheim/Ruhr                 #
                #                      Germany                          #
                #                                                       #
                #                  All rights reserved                  #
                #                        -***-                          #
                #########################################################


                         Program Version 6.0.1  -  RELEASE   -


 With contributions from (in alphabetic order):
[Max-Planck-Institut fuer Kohlenforschung]                               
  Daniel Aravena         : Magnetic Suceptibility                        
  Michael Atanasov       : Ab Initio Ligand Field Theory (pilot matlab implementation)
  Alexander A. Auer      : GIAO ZORA, VPT2 properties, NMR spectrum      
  Ute Becker             : All parallelization in ORCA, NUMFREQ, NUMCALC 
  Giovanni Bistoni       : ED, misc. LED, open-shell LED, HFLD           
  Martin Brehm           : Molecular dynamics                            
  Dmytro Bykov           : pre 5.0 version of the SCF Hessian            
  Marcos Casanova-Páez   : Triplet and SCS-CIS(D). UHF-(DLPNO)-IP/EA/STEOM-CCSD. UHF-CVS-IP/STEOM-CCSD   
  Vijay G. Chilkuri      : MRCI spin determinant printing, contributions to CSF-ICE 
  Pauline Colinet        : FMM embedding                                 
  Dipayan Datta          : RHF DLPNO-CCSD density                        
  Achintya Kumar Dutta   : EOM-CC, STEOM-CC                              
  Nicolas Foglia         : Exact transition moments, OPA infrastructure, MCD improvements    
  Dmitry Ganyushin       : Spin-Orbit,Spin-Spin,Magnetic field MRCI      
  Miquel Garcia-Rates    : C-PCM and meta-GGA Hessian, CCSD/C-PCM, Gaussian charge scheme 
  Tiago L. C. Gouveia    : GS-ROHF, GS-ROCIS                             
  Yang Guo               : DLPNO-NEVPT2, F12-NEVPT2, CIM, IAO-localization        
  Andreas Hansen         : Spin unrestricted coupled pair/coupled cluster methods 
  Ingolf Harden          : AUTO-CI MPn and infrastructure                
  Benjamin Helmich-Paris : MC-RPA, TRAH-(SCF,CASSCF), AVAS, COSX integrals, SCF dyn. polar. 
  Lee Huntington         : MR-EOM, pCC                                   
  Robert Izsak           : Overlap fitted RIJCOSX, COSX-SCS-MP3, EOM     
  Riya Kayal             : Wick's Theorem for AUTO-CI, AUTO-CI UHF-CCSDT 
  Emily Kempfer          : AUTO-CI, RHF CISDT and CCSDT                  
  Christian Kollmar      : KDIIS, OOCD, Brueckner-CCSD(T), CCSD density, CASPT2, CASPT2-K, improved NEVPT2 
  Axel Koslowski         : Symmetry handling                             
  Simone Kossmann        : meta-GGA functionals, TD-DFT gradient, OOMP2, (MP2 Hessian; deprecated post 5.0) 
  Lucas Lang             : DCDCAS                                        
  Marvin Lechner         : AUTO-CI (C++ implementation), FIC-MRCC        
  Spencer Leger          : CASSCF response                               
  Dagmar Lenk            : GEPOL surface, SMD, ORCA-2-JSON               
  Dimitrios Liakos       : Extrapolation schemes; Compound Job, initial MDCI parallelization 
  Dimitrios Manganas     : Further ROCIS development; embedding schemes. LFT, Crystal Embedding 
  Dimitrios Pantazis     : SARC Basis sets                               
  Anastasios Papadopoulos: AUTO-CI, single reference methods and gradients 
  Taras Petrenko         : pre 6.0 DFT Hessian and TD-DFT gradient, (ASA, deprecated), ECA, 1-Electron XAS/XES, NRVS 
  Peter Pinski           : DLPNO-MP2, DLPNO-MP2 Gradient                 
  Christoph Reimann      : Effective Core Potentials                     
  Marius Retegan         : Local ZFS, SOC                                
  Christoph Riplinger    : Optimizer, TS searches, QM/MM, DLPNO-CCSD(T), (RO)-DLPNO pert. Triples 
  Michael Roemelt        : Original ROCIS implementation                 
  Masaaki Saitow         : Open-shell DLPNO-CCSD energy and density      
  Barbara Sandhoefer     : DKH picture change effects                    
  Kantharuban Sivalingam : CASSCF convergence/infrastructure, NEVPT2 and variants, FIC-MRCI 
  Bernardo de Souza      : ESD, SOC TD-DFT                               
  Georgi L. Stoychev     : AutoAux, RI-MP2 NMR, DLPNO-MP2 response, X2C  
  Van Anh Tran           : RI-MP2 g-tensors                              
  Willem Van den Heuvel  : Paramagnetic NMR                              
  Zikuan Wang            : NOTCH, Electric field optimization            
  Frank Wennmohs         : Technical directorship and infrastructure     
  Hang Xu                : AUTO-CI-Response properties                   
                                                                         
[FACCTs GmbH]                                                            
  Markus Bursch, Miquel Garcia-Rates, Christoph Riplinger, Bernardo de Souza, Georgi L. Stoychev 
                                                                 
  APM, Basis sets (HGBS, AHGBS, def-TZVP (Ac-Lr), def2-XVPD (La-Lu)), CI-OPT, improved COSX, DLPNO-Multilevel,           
  DOCKER, DRACO, updates on ESD, GOAT, IRC, LR-CPCM, MBIS, meta-GGA TD-DFT gradient, ML-optimized integration grids, 
  MM, NACMEs, nearIR, NEB, NEB-TS, NL-DFT gradient (VV10), 2- and 3-layer-ONIOM, interface openCOSMO-RS, QMMM,   
  Crystal-QMMM, SF, symmetry and pop. for TD-DFT, r2SCAN hybrids, SOLVATOR                                   
                                                                         
[Other institutions]                                                     
  V. Asgeirsson          : NEB                                           
  Christoph Bannwarth    : sTDA-DFT, sTD-DFT, PBEh-3c, B97-3c, D3        
  Sebastian Ehlert       : rSCAN, r2SCAN, r2SCAN-3c, D4, dhf basis sets  
  Marvin Friede          : D4 for Fr, Ra, Ac-Lr                          
  Lars Goerigk           : TD-DFT with DH, B97 family of functionals     
  Stefan Grimme          : VdW corrections, initial TS optimization, DFT functionals, gCP, sTDA/sTD-DF 
  Waldemar Hujo          : DFT-NL                                        
  H. Jonsson             : NEB                                           
  Holger Kruse           : gCP                                           
  Marcel Mueller         : wB97X-3c, vDZP basis set                      
  Hagen Neugebauer       : wr2SCAN                                       
  Tobias Risthaus        : range-separated hybrid DFT                    
  Lukas Wittmann         : regularized MP2, r2SCAN double-hybrids, wr2SCAN        
                                                                         
We gratefully acknowledge several colleagues who have allowed us to      
interface, adapt or use parts of their codes:                            
  Ed Valeev, F. Pavosevic, A. Kumar             : LibInt (2-el integral package), F12 methods 
  Garnet Chan, S. Sharma, J. Yang, R. Olivares  : DMRG                   
  Ulf Ekstrom                                   : XCFun DFT Library      
  Mihaly Kallay                                 : mrcc  (arbitrary order and MRCC methods)
  Frank Weinhold                                : gennbo (NPA and NBO analysis)           
  Simon Mueller                                 : openCOSMO-RS                            
  Christopher J. Cramer and Donald G. Truhlar   : smd solvation model                     
  S Lehtola, MJT Oliveira, MAL Marques          : LibXC Library                           
  Liviu Ungur et al                             : ANISO software                          


 Your calculation uses the libint2 library for the computation of 2-el integrals
 For citations please refer to: http://libint.valeyev.net

 Your ORCA version has been built with support for libXC version: 6.2.2
 For citations please refer to: https://libxc.gitlab.io

 This ORCA versions uses:
   CBLAS   interface :  Fast vector & matrix operations
   LAPACKE interface :  Fast linear algebra routines
   SCALAPACK package :  Parallel linear algebra routines
   Shared memory     :  Shared parallel matrices
   BLAS/LAPACK       :  OpenBLAS 0.3.27  USE64BITINT DYNAMIC_ARCH NO_AFFINITY SkylakeX SINGLE_THREADED
        Core in use  :  SkylakeX
   Copyright (c) 2011-2014, The OpenBLAS Project


Your calculation utilizes the atom-pairwise dispersion correction
with the Becke-Johnson damping scheme (D3BJ)


Warning: RI is on but no J-basis has been assigned. Assigning Def2/J (nothing to worry about!)
================================================================================

----- Orbital basis set information -----
Your calculation utilizes the basis: def2-SVP
   F. Weigend and R. Ahlrichs, Phys. Chem. Chem. Phys. 7, 3297 (2005).

----- AuxJ basis set information -----
Your calculation utilizes the auxiliary basis: def2/J
   F. Weigend, Phys. Chem. Chem. Phys. 8, 1057 (2006).

================================================================================
                                        WARNINGS
                       Please study these warnings very carefully!
================================================================================


WARNING: Geometry Optimization
  ===> : Switching off AutoStart
         For restart on a previous wavefunction, please use MOREAD

================================================================================
                                       INPUT FILE
================================================================================
NAME = zinc_hydrate_1.inp
|  1> ! B3LYP def2-SVP Opt TightSCF ALLPOP KEEPDENS D3BJ CPCM(Water)
|  2> 
|  3> %pal
|  4> nprocs 32
|  5> end
|  6> 
|  7> * xyz 2 1
|  8> Zn         0.69840        1.20920        1.03000
|  9> H          1.52870       -1.74360       -2.82080
| 10> O          0.99540       -0.98260       -2.47760
| 11> H          0.22930       -1.09620       -3.10020
| 12> H          0.94880        2.33720       -2.48310
| 13> O          1.18660        3.16200       -1.36630
| 14> H          2.57490        3.02020       -1.55820
| 15> H          1.66880        2.19860        0.58650
| 16> O          1.90660        3.02340        1.70330
| 17> H          3.29490        2.88160        1.51140
| 18> H          0.50630       -1.30020        1.60700
| 19> O          0.74410       -0.47540        2.72380
| 20> H          2.13240       -0.61720        2.53190
| 21> H         -0.37870        1.62860        2.46380
| 22> O         -0.14090        2.45340        3.58060
| 23> H          1.24740        2.31160        3.38870
| 24> H          0.86890       -0.18790       -1.25110
| 25> O          1.10670        0.63690       -0.13430
| 26> H          2.49500        0.49510       -0.32620
| 27> *
| 28> 
| 29>                          ****END OF INPUT****
================================================================================

                       *****************************
                       * Geometry Optimization Run *
                       *****************************

Geometry optimization settings:
Update method            Update   .... BFGS
Choice of coordinates    CoordSys .... (2022) Redundant Internals
Initial Hessian          InHess   .... Almloef's Model
Max. no of cycles        MaxIter  .... 57

Convergence Tolerances:
Energy Change            TolE     ....  5.0000e-06 Eh
Max. Gradient            TolMAXG  ....  3.0000e-04 Eh/bohr
RMS Gradient             TolRMSG  ....  1.0000e-04 Eh/bohr
Max. Displacement        TolMAXD  ....  4.0000e-03 bohr
RMS Displacement         TolRMSD  ....  2.0000e-03 bohr
Strict Convergence                .... False

------------------------------------------------------------------------------
                        ORCA OPTIMIZATION COORDINATE SETUP
------------------------------------------------------------------------------

The optimization will be done in redundant internal coordinates (2022)
Making redundant internal coordinates   ...  (2022 redundants) done
Evaluating the initial hessian          ...  (Almloef) done
Evaluating the coordinates              ...  done
Calculating the B-matrix                .... done
Calculating the G-matrix                .... done
Diagonalizing the G-matrix              .... done
The first mode is                       ....  108
The number of degrees of freedom        ....   51

    -----------------------------------------------------------------
                    Redundant Internal Coordinates


    -----------------------------------------------------------------
         Definition                    Initial Value    Approx d2E/dq
    -----------------------------------------------------------------
      1. B(O   2,H   1)                  0.9906         0.464648   
      2. B(H   3,O   2)                  0.9937         0.459406   
      3. B(O   5,H   4)                  1.4086         0.100067   
      4. B(H   6,H   4)                  1.9915         0.002513   
      5. B(H   6,O   5)                  1.4087         0.100038   
      6. B(H   7,Zn  0)                  1.4551         0.952957   
      7. B(H   7,O   5)                  2.2303         0.004890   
      8. B(O   8,H   7)                  1.4086         0.100067   
      9. B(O   8,Zn  0)                  2.2813         0.214271   
     10. B(H   9,H   7)                  1.9915         0.002513   
     11. B(H   9,O   8)                  1.4087         0.100038   
     12. B(O  11,Zn  0)                  2.3893         0.144087   
     13. B(O  11,H  10)                  1.4086         0.100067   
     14. B(H  12,O  11)                  1.4087         0.100038   
     15. B(H  12,H  10)                  1.9915         0.002513   
     16. B(H  13,O  11)                  2.3990         0.002631   
     17. B(H  13,Zn  0)                  1.8417         0.230289   
     18. B(O  14,H  13)                  1.4086         0.100067   
     19. B(H  15,H  13)                  1.9915         0.002513   
     20. B(H  15,O   8)                  1.9447         0.013963   
     21. B(H  15,O  14)                  1.4087         0.100038   
     22. B(H  16,O   2)                  1.4669         0.080762   
     23. B(O  17,H   7)                  1.8095         0.022940   
     24. B(O  17,Zn  0)                  1.3601         6.320160   
     25. B(O  17,O   5)                  2.8108         0.002712   
     26. B(O  17,H  16)                  1.4086         0.100067   
     27. B(H  18,H  16)                  1.9915         0.002513   
     28. B(H  18,O  17)                  1.4087         0.100038   
     29. A(H   7,Zn  0,O  11)          133.0563         0.417767   
     30. A(H   7,Zn  0,O   8)           36.4889         0.448662   
     31. A(O   8,Zn  0,H  13)           84.1957         0.349790   
     32. A(O   8,Zn  0,O  11)          109.9581         0.346068   
     33. A(O  11,Zn  0,O  17)          107.7244         0.641982   
     34. A(H   7,Zn  0,O  17)           79.9209         0.862674   
     35. A(O   8,Zn  0,O  17)          115.3589         0.693948   
     36. A(H   7,Zn  0,H  13)          118.1952         0.422526   
     37. A(O  11,Zn  0,H  13)           67.6569         0.327387   
     38. A(H  13,Zn  0,O  17)          159.6934         0.649987   
     39. A(H   3,O   2,H  16)          121.2858         0.237533   
     40. A(H   1,O   2,H   3)           96.3243         0.309709   
     41. A(H   1,O   2,H  16)          138.7875         0.237915   
     42. A(O   5,H   4,H   6)           45.0180         0.127804   
     43. A(H   4,O   5,O  17)           79.4366         0.145142   
     44. A(H   6,O   5,H   7)           82.1092         0.144761   
     45. A(H   4,O   5,H   7)          118.5404         0.144765   
     46. A(H   4,O   5,H   6)           89.9673         0.199420   
     47. A(H   6,O   5,O  17)           89.8450         0.145138   
     48. A(H   7,O   5,O  17)           40.0301         0.117351   
     49. A(H   4,H   6,O   5)           45.0147         0.127802   
     50. A(Zn  0,H   7,H   9)          129.5074         0.168196   
     51. A(O   5,H   7,H   9)          115.7874         0.108596   
     52. A(Zn  0,H   7,O   5)          114.6078         0.202812   
     53. A(H   9,O   8,H  15)          114.5381         0.159706   
     54. A(Zn  0,O   8,H  15)           77.5953         0.201843   
     55. A(Zn  0,O   8,H   9)          113.6842         0.265213   
     56. A(H   7,H   9,O   8)           45.0147         0.127802   
     57. A(O  11,H  10,H  12)           45.0180         0.127804   
     58. A(Zn  0,O  11,H  10)           81.2317         0.250087   
     59. A(H  10,O  11,H  12)           89.9673         0.199420   
     60. A(Zn  0,O  11,H  12)           89.6133         0.250076   
     61. A(H  10,H  12,O  11)           45.0147         0.127802   
     62. A(O  14,H  13,H  15)           45.0180         0.127804   
     63. A(Zn  0,H  13,H  15)           87.8296         0.146425   
     64. A(Zn  0,H  13,O  14)          130.6827         0.252419   
     65. A(H  13,O  14,H  15)           89.9673         0.199420   
     66. A(O   8,H  15,O  14)          114.5381         0.159706   
     67. A(O   8,H  15,H  13)           89.9890         0.113848   
     68. A(H  13,H  15,O  14)           45.0147         0.127802   
     69. A(O   2,H  16,H  18)          120.2443         0.125967   
     70. A(O   2,H  16,O  17)          164.9232         0.194199   
     71. A(O  17,H  16,H  18)           45.0180         0.127804   
     72. A(Zn  0,O  17,H  18)          117.0547         0.468054   
     73. A(Zn  0,O  17,H  16)          150.9783         0.468079   
     74. A(O   5,O  17,H  18)           90.1550         0.145138   
     75. A(O   5,O  17,H  16)          100.5634         0.145142   
     76. A(Zn  0,O  17,O   5)           90.3286         0.281726   
     77. A(H  16,O  17,H  18)           89.9673         0.199420   
     78. A(H  16,H  18,O  17)           45.0147         0.127802   
     79. D(O  17,O   5,H   4,H   6)    -89.8484         0.008859   
     80. D(H   7,O   5,H   4,H   6)    -80.9912         0.008859   
     81. D(H   4,H   6,O   5,H   7)    118.8439         0.008854   
     82. D(H   4,H   6,O   5,O  17)     79.4367         0.008854   
     83. D(Zn  0,H   7,O   5,H   6)   -139.7658         0.001518   
     84. D(Zn  0,H   7,O   5,H   4)    -54.1265         0.001518   
     85. D(Zn  0,H   7,O   5,O  17)    -40.5153         0.001518   
     86. D(H   9,H   7,Zn  0,H  13)     67.2731         0.035454   
     87. D(H   9,H   7,O   5,O  17)    142.7273         0.001518   
     88. D(H   9,H   7,Zn  0,O  11)    -17.5968         0.035454   
     89. D(H   9,H   7,O   5,H   4)    129.1162         0.001518   
     90. D(O   5,H   7,Zn  0,O  17)     61.2902         0.035454   
     91. D(O   5,H   7,Zn  0,O  11)    166.1882         0.035454   
     92. D(H   9,H   7,Zn  0,O  17)   -122.4948         0.035454   
     93. D(H   9,H   7,Zn  0,O   8)     43.8702         0.035454   
     94. D(H   9,H   7,O   5,H   6)     43.4769         0.001518   
     95. D(O   5,H   7,Zn  0,O   8)   -132.3448         0.035454   
     96. D(O   5,H   7,Zn  0,H  13)   -108.9420         0.035454   
     97. D(H  15,O   8,Zn  0,H  13)     33.3821         0.001748   
     98. D(H  15,O   8,Zn  0,O  11)    -30.2943         0.001748   
     99. D(H  15,O   8,Zn  0,H   7)   -167.2195         0.001748   
    100. D(H   9,O   8,Zn  0,H  13)    144.9656         0.001748   
    101. D(H   9,O   8,Zn  0,O  11)     81.2892         0.001748   
    102. D(H   9,O   8,Zn  0,O  17)    -40.7529         0.001748   
    103. D(H   9,O   8,Zn  0,H   7)    -55.6360         0.001748   
    104. D(H   7,H   9,O   8,H  15)    117.1675         0.008854   
    105. D(H   7,H   9,O   8,Zn  0)     30.4701         0.008854   
    106. D(O   8,H   9,H   7,Zn  0)    -70.6726         0.001568   
    107. D(O   8,H   9,H   7,O   5)    105.5055         0.001568   
    108. D(H  10,O  11,Zn  0,O   8)   -154.8809         0.001615   
    109. D(H  10,O  11,Zn  0,H   7)   -121.1136         0.001615   
    110. D(H  12,O  11,Zn  0,O   8)    -64.8544         0.001615   
    111. D(H  12,O  11,Zn  0,H  13)   -139.4529         0.001615   
    112. D(Zn  0,O  11,H  10,H  12)     89.6137         0.008859   
    113. D(H  12,O  11,Zn  0,H   7)    -31.0871         0.001615   
    114. D(H  10,O  11,Zn  0,O  17)    -28.4094         0.001615   
    115. D(H  10,O  11,Zn  0,H  13)    130.5206         0.001615   
    116. D(H  10,H  12,O  11,Zn  0)    -81.2317         0.008854   
    117. D(H  15,H  13,Zn  0,O  11)     82.7000         0.003053   
    118. D(H  15,H  13,Zn  0,O   8)    -31.6759         0.003053   
    119. D(H  15,H  13,Zn  0,H   7)    -45.4100         0.003053   
    120. D(O  14,H  13,Zn  0,O  17)    178.4763         0.003053   
    121. D(O  14,H  13,Zn  0,O  11)     97.8147         0.003053   
    122. D(O  14,H  13,Zn  0,O   8)    -16.5612         0.003053   
    123. D(O  14,H  13,Zn  0,H   7)    -30.2952         0.003053   
    124. D(H  15,O  14,H  13,Zn  0)    -21.6158         0.008859   
    125. D(O   8,H  15,O  14,H  13)     62.8325         0.008128   
    126. D(O   8,H  15,H  13,O  14)   -125.9700         0.001568   
    127. D(O   8,H  15,H  13,Zn  0)     37.7963         0.001568   
    128. D(O  14,H  15,H  13,Zn  0)    163.7663         0.001568   
    129. D(H  13,H  15,O   8,H   9)   -141.0046         0.001623   
    130. D(H  13,H  15,O   8,Zn  0)    -30.4122         0.001623   
    131. D(O  14,H  15,O   8,H   9)    180.0000         0.001623   
    132. D(O  14,H  15,O   8,Zn  0)    -69.4076         0.001623   
    133. D(H  18,H  16,O   2,H   3)   -161.0167         0.006069   
    134. D(H  18,H  16,O   2,H   1)     46.1761         0.006069   
    135. D(O  17,H  16,O   2,H   3)   -149.9568         0.006069   
    136. D(O  17,H  16,O   2,H   1)     57.2360         0.006069   
    137. D(H  18,O  17,Zn  0,H   7)     51.0897         0.298824   
    138. D(H  16,O  17,Zn  0,H  13)      2.3822         0.298824   
    139. D(H  16,O  17,Zn  0,O  11)     75.7471         0.298824   
    140. D(H  16,O  17,Zn  0,O   8)   -161.0205         0.298824   
    141. D(H  16,O  17,Zn  0,H   7)   -152.0960         0.298824   
    142. D(O   5,O  17,H  16,O   2)     76.6015         0.010170   
    143. D(O   5,O  17,H  16,H  18)     90.1516         0.010170   
    144. D(H  18,O  17,H  16,O   2)    -13.5501         0.010170   
    145. D(Zn  0,O  17,H  16,H  18)   -159.4741         0.010170   
    146. D(H  18,O  17,O   5,H   7)    -77.8645         0.001501   
    147. D(H  16,O  17,O   5,H   6)    -89.9956         0.001501   
    148. D(H  16,O  17,O   5,H   4)      0.0000         0.001501   
    149. D(H  16,O  17,O   5,H   7)   -167.8602         0.001501   
    150. D(Zn  0,O  17,O   5,H   6)    117.0562         0.001501   
    151. D(Zn  0,O  17,O   5,H   4)   -152.9481         0.001501   
    152. D(Zn  0,O  17,H  16,O   2)   -173.0242         0.010170   
    153. D(Zn  0,O  17,O   5,H   7)     39.1917         0.001501   
    154. D(H  18,O  17,Zn  0,H  13)   -154.4321         0.298824   
    155. D(H  18,O  17,Zn  0,O  11)    -81.0671         0.298824   
    156. D(H  18,O  17,Zn  0,O   8)     42.1652         0.298824   
    157. D(H  16,H  18,O  17,O   5)   -100.5633         0.009530   
    158. D(H  16,H  18,O  17,Zn  0)    168.9885         0.009530   
    159. D(O  17,H  18,H  16,O   2)    175.9547         0.001556   
    -----------------------------------------------------------------

Number of atoms                         .... 19
Number of degrees of freedom            .... 159


         *************************************************************
         *                GEOMETRY OPTIMIZATION CYCLE   1            *
         *************************************************************
---------------------------------
CARTESIAN COORDINATES (ANGSTROEM)
---------------------------------
  Zn     0.698400    1.209200    1.030000
  H      1.528700   -1.743600   -2.820800
  O      0.995400   -0.982600   -2.477600
  H      0.229300   -1.096200   -3.100200
  H      0.948800    2.337200   -2.483100
  O      1.186600    3.162000   -1.366300
  H      2.574900    3.020200   -1.558200
  H      1.668800    2.198600    0.586500
  O      1.906600    3.023400    1.703300
  H      3.294900    2.881600    1.511400
  H      0.506300   -1.300200    1.607000
  O      0.744100   -0.475400    2.723800
  H      2.132400   -0.617200    2.531900
  H     -0.378700    1.628600    2.463800
  O     -0.140900    2.453400    3.580600
  H      1.247400    2.311600    3.388700
  H      0.868900   -0.187900   -1.251100
  O      1.106700    0.636900   -0.134300
  H      2.495000    0.495100   -0.326200

----------------------------
CARTESIAN COORDINATES (A.U.)
----------------------------
  NO LB      ZA    FRAG     MASS         X           Y           Z
   0 Zn   30.0000    0    65.380    1.319785    2.285057    1.946418
   1 H     1.0000    0     1.008    2.888824   -3.294926   -5.330539
   2 O     8.0000    0    15.999    1.881033   -1.856845   -4.681985
   3 H     1.0000    0     1.008    0.433314   -2.071518   -5.858529
   4 H     1.0000    0     1.008    1.792972    4.416668   -4.692379
   5 O     8.0000    0    15.999    2.242349    5.975314   -2.581933
   6 H     1.0000    0     1.008    4.865856    5.707351   -2.944571
   7 H     1.0000    0     1.008    3.153575    4.154752    1.108324
   8 O     8.0000    0    15.999    3.602952    5.713398    3.218771
   9 H     1.0000    0     1.008    6.226459    5.445435    2.856132
  10 H     1.0000    0     1.008    0.956768   -2.457022    3.036790
  11 O     8.0000    0    15.999    1.406145   -0.898376    5.147236
  12 H     1.0000    0     1.008    4.029652   -1.166339    4.784598
  13 H     1.0000    0     1.008   -0.715639    3.077608    4.655907
  14 O     8.0000    0    15.999   -0.266262    4.636254    6.766353
  15 H     1.0000    0     1.008    2.357244    4.368291    6.403715
  16 H     1.0000    0     1.008    1.641983   -0.355080   -2.364236
  17 O     8.0000    0    15.999    2.091360    1.203567   -0.253790
  18 H     1.0000    0     1.008    4.714867    0.935603   -0.616429

--------------------------------
INTERNAL COORDINATES (ANGSTROEM)
--------------------------------
 Zn     0   0   0     0.000000000000     0.00000000     0.00000000
 H      1   0   0     4.923117566136     0.00000000     0.00000000
 O      2   1   0     0.990614016658    34.65968610     0.00000000
 H      3   2   1     0.993702636607    96.32432673   203.27824470
 H      3   2   1     3.320131601307   140.81553861    95.87405334
 O      5   3   2     1.408575919147   125.57826727   249.17882717
 H      6   5   3     1.408655294953    89.96728864    81.94765286
 H      1   2   3     1.455087890816    93.26461811   271.09854195
 O      8   1   2     1.408575919147   105.60983643   195.27750534
 H      9   8   1     1.408655294953    89.96728864   130.89223063
 H      1   2   3     2.582037910256    66.69853880   125.55967353
 O     11   1   2     1.408575919147    66.14234024   158.76025124
 H     12  11   1     1.408655294953    89.96728864   270.38627432
 H      1   2   3     1.841690313272   147.58344741    77.66169510
 O     14   1   2     1.408575919147   130.68271426   164.96664899
 H     15  14   1     1.408655294953    89.96728864   338.38420270
 H      3   2   1     1.466919421782   138.78752195     0.14163672
 O      1   2   3     1.360084802503    13.44361708   278.07046066
 H     18   1   8     1.408655294953   117.05465657    51.08971686

---------------------------
INTERNAL COORDINATES (A.U.)
---------------------------
 Zn     0   0   0     0.000000000000     0.00000000     0.00000000
 H      1   0   0     9.303343925095     0.00000000     0.00000000
 O      2   1   0     1.871989195908    34.65968610     0.00000000
 H      3   2   1     1.877825841743    96.32432673   203.27824470
 H      3   2   1     6.274139455048   140.81553861    95.87405334
 O      5   3   2     2.661822726024   125.57826727   249.17882717
 H      6   5   3     2.661972724560    89.96728864    81.94765286
 H      1   2   3     2.749717614428    93.26461811   271.09854195
 O      8   1   2     2.661822726024   105.60983643   195.27750534
 H      9   8   1     2.661972724560    89.96728864   130.89223063
 H      1   2   3     4.879344517786    66.69853880   125.55967353
 O     11   1   2     2.661822726024    66.14234024   158.76025124
 H     12  11   1     2.661972724560    89.96728864   270.38627432
 H      1   2   3     3.480290315580   147.58344741    77.66169510
 O     14   1   2     2.661822726024   130.68271426   164.96664899
 H     15  14   1     2.661972724560    89.96728864   338.38420270
 H      3   2   1     2.772075967697   138.78752195     0.14163672
 O      1   2   3     2.570187795639    13.44361708   278.07046066
 H     18   1   8     2.661972724560   117.05465657    51.08971686

---------------------
BASIS SET INFORMATION
---------------------
There are 3 groups of distinct atoms

 Group   1 Type Zn  : 14s9p5d1f contracted to 5s3p2d1f pattern {63311/531/41/1}
 Group   2 Type H   : 4s1p contracted to 2s1p pattern {31/1}
 Group   3 Type O   : 7s4p1d contracted to 3s2p1d pattern {511/31/1}

Atom   0Zn   basis set group =>   1
Atom   1H    basis set group =>   2
Atom   2O    basis set group =>   3
Atom   3H    basis set group =>   2
Atom   4H    basis set group =>   2
Atom   5O    basis set group =>   3
Atom   6H    basis set group =>   2
Atom   7H    basis set group =>   2
Atom   8O    basis set group =>   3
Atom   9H    basis set group =>   2
Atom  10H    basis set group =>   2
Atom  11O    basis set group =>   3
Atom  12H    basis set group =>   2
Atom  13H    basis set group =>   2
Atom  14O    basis set group =>   3
Atom  15H    basis set group =>   2
Atom  16H    basis set group =>   2
Atom  17O    basis set group =>   3
Atom  18H    basis set group =>   2
---------------------------------
AUXILIARY/J BASIS SET INFORMATION
---------------------------------
There are 3 groups of distinct atoms

 Group   1 Type Zn  : 19s5p5d3f3g contracted to 8s5p5d2f3g pattern {121111111/11111/11111/21/111}
 Group   2 Type H   : 5s2p1d contracted to 3s1p1d pattern {311/2/1}
 Group   3 Type O   : 12s5p4d2f1g contracted to 6s4p3d1f1g pattern {711111/2111/211/2/1}

Atom   0Zn   basis set group =>   1
Atom   1H    basis set group =>   2
Atom   2O    basis set group =>   3
Atom   3H    basis set group =>   2
Atom   4H    basis set group =>   2
Atom   5O    basis set group =>   3
Atom   6H    basis set group =>   2
Atom   7H    basis set group =>   2
Atom   8O    basis set group =>   3
Atom   9H    basis set group =>   2
Atom  10H    basis set group =>   2
Atom  11O    basis set group =>   3
Atom  12H    basis set group =>   2
Atom  13H    basis set group =>   2
Atom  14O    basis set group =>   3
Atom  15H    basis set group =>   2
Atom  16H    basis set group =>   2
Atom  17O    basis set group =>   3
Atom  18H    basis set group =>   2


           ************************************************************
           *        Program running with 32 parallel MPI-processes    *
           *              working on a common directory               *
           ************************************************************
------------------------------------------------------------------------------
                             ORCA STARTUP CALCULATIONS
                           -- RI-GTO INTEGRALS CHOSEN --
------------------------------------------------------------------------------
------------------------------------------------------------------------------
                   ___                                                        
                  /   \      - P O W E R E D   B Y -                         
                 /     \                                                     
                 |  |  |   _    _      __       _____    __    __             
                 |  |  |  | |  | |    /  \     |  _  \  |  |  /  |          
                  \  \/   | |  | |   /    \    | | | |  |  | /  /          
                 / \  \   | |__| |  /  /\  \   | |_| |  |  |/  /          
                |  |  |   |  __  | /  /__\  \  |    /   |      \           
                |  |  |   | |  | | |   __   |  |    \   |  |\   \          
                \     /   | |  | | |  |  |  |  | |\  \  |  | \   \       
                 \___/    |_|  |_| |__|  |__|  |_| \__\ |__|  \__/        
                                                                              
                      - O R C A' S   B I G   F R I E N D -                    
                                      &                                       
                       - I N T E G R A L  F E E D E R -                       
                                                                              
 v1 FN, 2020, v2 2021, v3 2022-2024                                           
------------------------------------------------------------------------------


----------------------
SHARK INTEGRAL PACKAGE
----------------------

Number of atoms                             ...     19
Number of basis functions                   ...    175
Number of shells                            ...     83
Maximum angular momentum                    ...      3
Integral batch strategy                     ... SHARK/LIBINT Hybrid
RI-J (if used) integral strategy            ... SPLIT-RIJ (Revised 2003 algorithm where possible)
Printlevel                                  ...      1
Contraction scheme used                     ... SEGMENTED contraction
Prescreening option                         ... SCHWARTZ
   Thresh                                   ... 2.500e-11
   Tcut                                     ... 2.500e-12
   Tpresel                                  ... 2.500e-12 
Coulomb Range Separation                    ... NOT USED
Exchange Range Separation                   ... NOT USED
Multipole approximations                    ... NOT USED
Finite Nucleus Model                        ... NOT USED
CABS basis                                  ... NOT available
Auxiliary Coulomb fitting basis             ... AVAILABLE
   # of basis functions in Aux-J            ...    515
   # of shells in Aux-J                     ...    173
   Maximum angular momentum in Aux-J        ...      4
Auxiliary J/K fitting basis                 ... NOT available
Auxiliary Correlation fitting basis         ... NOT available
Auxiliary 'external' fitting basis          ... NOT available

Checking pre-screening integrals            ... done (  0.0 sec) Dimension = 83
Check shell pair data                       ... done (  0.0 sec)
Shell pair information
Shell pair cut-off parameter TPreSel        ...   2.5e-12
Total number of shell pairs                 ...      3486
Shell pairs after pre-screening             ...      2929
Total number of primitive shell pairs       ...     13195
Primitive shell pairs kept                  ...      7614
          la=0 lb=0:    991 shell pairs
          la=1 lb=0:   1068 shell pairs
          la=1 lb=1:    302 shell pairs
          la=2 lb=0:    303 shell pairs
          la=2 lb=1:    166 shell pairs
          la=2 lb=2:     28 shell pairs
          la=3 lb=0:     39 shell pairs
          la=3 lb=1:     24 shell pairs
          la=3 lb=2:      7 shell pairs
          la=3 lb=3:      1 shell pairs

Calculating one electron integrals          ... done (  0.0 sec)
Calculating RI/J V-Matrix + Cholesky decomp.... done (  0.0 sec)
Calculating Nuclear repulsion               ... done (  0.0 sec) ENN=    635.138753095147 Eh

Diagonalization of the overlap matrix:
Smallest eigenvalue                        ... 9.326e-03
Time for diagonalization                   ...    0.003 sec
Threshold for overlap eigenvalues          ... 1.000e-07
Number of eigenvalues below threshold      ... 0
Time for construction of square roots      ...    0.002 sec
Total time needed                          ...    0.006 sec

-------------------
DFT GRID GENERATION
-------------------

General Integration Accuracy     IntAcc      ... 4.388
Radial Grid Type                 RadialGrid  ... OptM3 with GC (2021)
Angular Grid (max. ang.)         AngularGrid ... 4 (Lebedev-302)
Angular grid pruning method      GridPruning ... 4 (adaptive)
Weight generation scheme         WeightScheme... mBecke (2022)
Basis function cutoff            BFCut       ... 1.0000e-11
Integration weight cutoff        WCut        ... 1.0000e-14
Partially contracted basis set               ... off
Rotationally invariant grid construction     ... off
Angular grids for H and He will be reduced by one unit
Core-polarized basis detected: some atoms will have their core
                               angular grid increased.

Total number of grid points                  ...    86795
Total number of batches                      ...     1364
Average number of points per batch           ...       63
Average number of grid points per atom       ...     4568

--------------------
COSX GRID GENERATION
--------------------

GRIDX 1
-------
General Integration Accuracy     IntAcc      ... 3.816
Radial Grid Type                 RadialGrid  ... OptM3 with GC (2021)
Angular Grid (max. ang.)         AngularGrid ... 1 (Lebedev-50)
Angular grid pruning method      GridPruning ... 4 (adaptive)
Weight generation scheme         WeightScheme... mBecke (2022)
Basis function cutoff            BFCut       ... 1.0000e-11
Integration weight cutoff        WCut        ... 1.0000e-14
Partially contracted basis set               ... on
Rotationally invariant grid construction     ... off
Angular grids for H and He will be reduced by one unit
Core-polarized basis detected: some atoms will have their core
                               angular grid increased.

Total number of grid points                  ...    15568
Total number of batches                      ...      132
Average number of points per batch           ...      117
Average number of grid points per atom       ...      819
UseSFitting                                  ... on

GRIDX 2
-------
General Integration Accuracy     IntAcc      ... 4.020
Radial Grid Type                 RadialGrid  ... OptM3 with GC (2021)
Angular Grid (max. ang.)         AngularGrid ... 2 (Lebedev-110)
Angular grid pruning method      GridPruning ... 4 (adaptive)
Weight generation scheme         WeightScheme... mBecke (2022)
Basis function cutoff            BFCut       ... 1.0000e-11
Integration weight cutoff        WCut        ... 1.0000e-14
Partially contracted basis set               ... on
Rotationally invariant grid construction     ... off
Angular grids for H and He will be reduced by one unit
Core-polarized basis detected: some atoms will have their core
                               angular grid increased.

Total number of grid points                  ...    26176
Total number of batches                      ...      214
Average number of points per batch           ...      122
Average number of grid points per atom       ...     1378
UseSFitting                                  ... on

GRIDX 3
-------
General Integration Accuracy     IntAcc      ... 4.338
Radial Grid Type                 RadialGrid  ... OptM3 with GC (2021)
Angular Grid (max. ang.)         AngularGrid ... 3 (Lebedev-194)
Angular grid pruning method      GridPruning ... 4 (adaptive)
Weight generation scheme         WeightScheme... mBecke (2022)
Basis function cutoff            BFCut       ... 1.0000e-11
Integration weight cutoff        WCut        ... 1.0000e-14
Partially contracted basis set               ... on
Rotationally invariant grid construction     ... off
Angular grids for H and He will be reduced by one unit
Core-polarized basis detected: some atoms will have their core
                               angular grid increased.

Total number of grid points                  ...    50241
Total number of batches                      ...      402
Average number of points per batch           ...      124
Average number of grid points per atom       ...     2644
UseSFitting                                  ... on
Initializing property integral containers    ... done (  0.0 sec)

SHARK setup successfully completed in   0.9 seconds

Maximum memory used throughout the entire STARTUP-calculation: 23.9 MB


           ************************************************************
           *        Program running with 32 parallel MPI-processes    *
           *              working on a common directory               *
           ************************************************************
-------------------------------------------------------------------------------
                                 ORCA GUESS
                   Start orbitals & Density for SCF / CASSCF
-------------------------------------------------------------------------------

------------
SCF SETTINGS
------------
Hamiltonian:
 Density Functional     Method          .... DFT(GTOs)
 Exchange Functional    Exchange        .... B88
   X-Alpha parameter    XAlpha          ....  0.666667
   Becke's b parameter  XBeta           ....  0.004200
 Correlation Functional Correlation     .... LYP
 LDA part of GGA corr.  LDAOpt          .... VWN-5
 Gradients option       PostSCFGGA      .... off
 Hybrid DFT is turned on
   Fraction HF Exchange ScalHFX         ....  0.200000
   Scaling of DF-GGA-X  ScalDFX         ....  0.720000
   Scaling of DF-GGA-C  ScalDFC         ....  0.810000
   Scaling of DF-LDA-C  ScalLDAC        ....  1.000000
   Perturbative correction              ....  0.000000
   NL short-range parameter             ....  4.800000
 RI-approximation to the Coulomb term is turned on
   Number of AuxJ basis functions       .... 515
   RIJ-COSX (HFX calculated with COS-X)).... on


General Settings:
 Integral files         IntName         .... zinc_hydrate_1
 Hartree-Fock type      HFTyp           .... RHF
 Total Charge           Charge          ....    2
 Multiplicity           Mult            ....    1
 Number of Electrons    NEL             ....   88
 Basis Dimension        Dim             ....  175
 Nuclear Repulsion      ENuc            ....    635.1387530951 Eh

Convergence Acceleration:
 AO-DIIS                CNVDIIS         .... on
   Start iteration      DIISMaxIt       ....    12
   Startup error        DIISStart       ....  0.200000
   # of expansion vecs  DIISMaxEq       ....     5
   Bias factor          DIISBfac        ....   1.050
   Max. coefficient     DIISMaxC        ....  10.000
 MO-DIIS                CNVKDIIS        .... off
 Trust-Rad. Augm. Hess. CNVTRAH         .... auto
   Auto Start mean grad. ratio tolernc. ....  1.125000
   Auto Start start iteration           ....    50
   Auto Start num. interpolation iter.  ....    10
   Max. Number of Micro iterations      ....    24
   Max. Number of Macro iterations      .... Maxiter - #DIIS iter
   Number of Davidson start vectors     ....     2
   Converg. threshold    (grad. norm)   ....   1.000e-05
   Grad. Scal. Fac. for Micro threshold ....   0.100
   Minimum threshold for Micro iter.    ....   1.000e-02
   NR start threshold (gradient norm)   ....   1.000e-04
   Initial trust radius                 ....   0.400
   Minimum AH scaling param. (alpha)    ....   1.000
   Maximum AH scaling param. (alpha)    .... 1000.000
   Quad. conv. algorithm                .... NR
   White noise on init. David. guess    .... on
   Maximum white noise                  ....   0.010
   Pseudo random numbers                .... off
   Inactive MOs                         .... canonical
   Orbital update algorithm             .... Taylor
   Preconditioner                       .... Diag
   Full preconditioner red. dimension   ....   250
 SOSCF                  CNVSOSCF        .... on
   Start iteration      SOSCFMaxIt      ....   150
   Startup grad/error   SOSCFStart      ....  0.003300
   Hessian update       SOSCFHessUp     .... L-BFGS
 Level Shifting         CNVShift        .... on
   Level shift para.    LevelShift      ....    0.2500
   Turn off err/grad.   ShiftErr        ....    0.0010
 Zerner damping         CNVZerner       .... off
 Static damping         CNVDamp         .... on
   Fraction old density DampFac         ....    0.7000
   Max. Damping (<1)    DampMax         ....    0.9800
   Min. Damping (>=0)   DampMin         ....    0.0000
   Turn off err/grad.   DampErr         ....    0.1000

SCF Procedure:
 Maximum # iterations   MaxIter         ....   125
 SCF integral mode      SCFMode         .... Direct
   Integral package                     .... SHARK and LIBINT hybrid scheme
 Reset frequency        DirectResetFreq ....    20
 Integral Threshold     Thresh          ....  2.500e-11 Eh
 Primitive CutOff       TCut            ....  2.500e-12 Eh

Convergence Tolerance:
 Convergence Check Mode ConvCheckMode   .... Total+1el-Energy
 Convergence forced     ConvForced      .... 0
 Energy Change          TolE            ....  1.000e-08 Eh
 1-El. energy change                    ....  1.000e-05 Eh
 Orbital Gradient       TolG            ....  1.000e-05
 Orbital Rotation angle TolX            ....  1.000e-05
 DIIS Error             TolErr          ....  5.000e-07

------------------------------
INITIAL GUESS: MODEL POTENTIAL
------------------------------
Loading Hartree-Fock densities                     ... done
Calculating cut-offs                               ... done
Initializing the effective Hamiltonian             ... done
Setting up the integral package (SHARK)            ... done
Starting the Coulomb interaction                   ... done (   0.0 sec)
Making the grid                                    ... done (   0.1 sec)
Mapping shells                                     ... done
Starting the XC term evaluation                    ... done (   0.0 sec)
  promolecular density results
     # of electrons  =     89.994454357
     EX              =   -122.246591592
     EC              =     -3.475068447
     EX+EC           =   -125.721660039
Transforming the Hamiltonian                       ... done (   0.0 sec)
Diagonalizing the Hamiltonian                      ... done (   0.0 sec)
Back transforming the eigenvectors                 ... done (   0.0 sec)
Now organizing SCF variables                       ... done
                      ------------------
                      INITIAL GUESS DONE (   0.1 sec)
                      ------------------
             **** ENERGY FILE WAS UPDATED (zinc_hydrate_1.en.tmp) ****
Finished Guess after   1.2 sec
Maximum memory used throughout the entire GUESS-calculation: 13.5 MB


           ************************************************************
           *        Program running with 32 parallel MPI-processes    *
           *              working on a common directory               *
           ************************************************************

-------------------------------------------------------------------------------------------
                                      ORCA LEAN-SCF
                              memory conserving SCF solver
-------------------------------------------------------------------------------------------

--------------------
CPCM SOLVATION MODEL
--------------------
CPCM parameters:
  Epsilon                                         ...      80.1510
  Refrac                                          ...       1.3328
  Rsolv                                           ...       1.3000
  Surface type                                    ... GAUSSIAN VDW
  Discretization scheme                           ... Constant charge density
    Threshold for H atoms                         ...       5.0000 (charges/Ang^2)
    Threshold for non-H atoms                     ...       5.0000 (charges/Ang^2)
  Epsilon function type                           ...         CPCM
Solvent:                                          ... WATER
Radii:
  Scheme                                          ... Element-dependent radii
  Radius for Zn used is    3.1521 Bohr (=   1.6680 Ang.)
  Radius for H  used is    2.4944 Bohr (=   1.3200 Ang.)
  Radius for O  used is    3.4469 Bohr (=   1.8240 Ang.)
Calculating surface                               ...        done! (  0.0s)
Cavity surface points                             ...         1652
Cavity Volume                                     ...    1207.8802
Cavity Surface-area                               ...     813.2011
Calculating surface distance matrix               ...        done! (  0.0s)
Performing Cholesky decomposition & store         ...        done! (  0.0s)
Overall time for CPCM initialization              ...                 0.1s

----------------------------------------D-I-I-S--------------------------------------------
Iteration    Energy (Eh)           Delta-E    RMSDP     MaxDP     DIISErr   Damp  Time(sec)
-------------------------------------------------------------------------------------------
               ***  Starting incremental Fock matrix formation  ***
    1    -2235.1492829476751467     0.00e+00  5.33e-03  1.08e-01  4.97e-01  0.700   0.3
Warning: op=0 Small HOMO/LUMO gap (   0.089) - skipping pre-diagonalization
         Will do a full diagonalization
    2    -2235.5301021777700043    -3.81e-01  2.70e-03  5.52e-02  1.47e-01  0.700   0.3
                               ***Turning on AO-DIIS***
    3    -2235.6330887646554402    -1.03e-01  1.00e-03  2.23e-02  3.59e-02  0.700   0.3
    4    -2235.6991922405181867    -6.61e-02  1.99e-03  1.05e-01  2.93e-02  0.000   0.2
    5    -2235.8621861635247114    -1.63e-01  5.31e-04  2.30e-02  2.81e-02  0.000   0.2
    6    -2235.8641706015368982    -1.98e-03  2.27e-04  8.38e-03  1.09e-02  0.000   0.2
    7    -2235.8645121140575611    -3.42e-04  8.88e-05  3.63e-03  3.34e-03  0.000   0.2
                              *** Initializing SOSCF ***
---------------------------------------S-O-S-C-F--------------------------------------
Iteration    Energy (Eh)           Delta-E    RMSDP     MaxDP     MaxGrad    Time(sec)
--------------------------------------------------------------------------------------
    8    -2235.8645648901242566    -5.28e-05  3.83e-05  1.07e-03  6.99e-04     0.2
               *** Restarting incremental Fock matrix formation ***
    9    -2235.8645740050583299    -9.11e-06  6.23e-05  1.89e-03  2.85e-04     0.3
   10    -2235.8645708057197226     3.20e-06  3.70e-05  1.38e-03  5.17e-04     0.3
   11    -2235.8645798472030037    -9.04e-06  1.81e-05  5.50e-04  1.07e-04     0.3
   12    -2235.8645790112245777     8.36e-07  1.12e-05  3.73e-04  2.24e-04     0.2
   13    -2235.8645802560026823    -1.24e-06  4.52e-06  1.52e-04  2.95e-05     0.2
   14    -2235.8645801887546440     6.72e-08  2.92e-06  9.96e-05  5.13e-05     0.2
   15    -2235.8645802776572964    -8.89e-08  1.17e-06  2.89e-05  6.71e-06     0.2
   16    -2235.8645802746491427     3.01e-09  7.35e-07  2.00e-05  1.39e-05     0.2
                 **** Energy Check signals convergence ****

               *****************************************************
               *                     SUCCESS                       *
               *           SCF CONVERGED AFTER  16 CYCLES          *
               *****************************************************

Recomputing exchange energy using gridx3       ... done (    0.235 sec)
Old exchange energy                            :    -24.260585050 Eh
New exchange energy                            :    -24.260644164 Eh
Exchange energy change after final integration :     -0.000059114 Eh
Total energy after final integration           :  -2235.864639388 Eh
             **** ENERGY FILE WAS UPDATED (zinc_hydrate_1.en.tmp) ****

----------------
TOTAL SCF ENERGY
----------------

Total Energy       :      -2235.86463938825227 Eh          -60840.96993 eV

Components:
Nuclear Repulsion  :        635.13875309514731 Eh           17283.00412 eV
Electronic Energy  :      -2870.57135241594551 Eh          -78112.21765 eV
One Electron Energy:      -4344.48172858981616 Eh         -118219.35799 eV
Two Electron Energy:       1473.91037617387042 Eh           40107.14034 eV
CPCM Dielectric    :         -0.43198095385103 Eh             -11.75480 eV

Virial components:
Potential Energy   :      -4464.53266186092878 Eh         -121486.10996 eV
Kinetic Energy     :       2228.66802247267651 Eh           60645.14003 eV
Virial Ratio       :          2.00322911121935

DFT components:
N(Alpha)           :       43.999993857122 electrons
N(Beta)            :       43.999993857122 electrons
N(Total)           :       87.999987714244 electrons
E(X)               :      -96.997703063742 Eh       
E(C)               :       -4.022403960295 Eh       
E(XC)              :     -101.020107024037 Eh       

CPCM Solvation Model Properties:
Surface-charge          :         -2.01176407316256
Corrected charge        :         -2.00000000000000
Outlying charge corr.   :          0.00000924188700 Eh               0.00025 eV
Free-energy (cav+disp)  :  This term is not implemented in the current solvation scheme

---------------
SCF CONVERGENCE
---------------

  Last Energy change         ...   -3.0082e-09  Tolerance :   1.0000e-08
  Last MAX-Density change    ...    1.9951e-05  Tolerance :   1.0000e-07
  Last RMS-Density change    ...    7.3523e-07  Tolerance :   5.0000e-09
  Last DIIS Error            ...    6.9925e-04  Tolerance :   5.0000e-07
  Last Orbital Gradient      ...    1.3903e-05  Tolerance :   1.0000e-05
  Last Orbital Rotation      ...    1.1986e-05  Tolerance :   1.0000e-05


----------------
ORBITAL ENERGIES
----------------

  NO   OCC          E(Eh)            E(eV) 
   0   2.0000    -347.363633     -9452.2450 
   1   2.0000     -42.334153     -1151.9709 
   2   2.0000     -37.328355     -1015.7562 
   3   2.0000     -37.325853     -1015.6881 
   4   2.0000     -37.323711     -1015.6298 
   5   2.0000     -19.222289      -523.0651 
   6   2.0000     -19.219959      -523.0017 
   7   2.0000     -19.213420      -522.8237 
   8   2.0000     -19.208818      -522.6985 
   9   2.0000     -19.192039      -522.2419 
  10   2.0000     -19.180838      -521.9371 
  11   2.0000      -4.943230      -134.5121 
  12   2.0000      -3.350096       -91.1607 
  13   2.0000      -3.333464       -90.7082 
  14   2.0000      -3.325776       -90.4990 
  15   2.0000      -1.066273       -29.0148 
  16   2.0000      -1.045466       -28.4486 
  17   2.0000      -0.936142       -25.4737 
  18   2.0000      -0.928955       -25.2781 
  19   2.0000      -0.896946       -24.4071 
  20   2.0000      -0.887766       -24.1573 
  21   2.0000      -0.677678       -18.4405 
  22   2.0000      -0.662744       -18.0342 
  23   2.0000      -0.646200       -17.5840 
  24   2.0000      -0.613856       -16.7039 
  25   2.0000      -0.600959       -16.3529 
  26   2.0000      -0.553860       -15.0713 
  27   2.0000      -0.532897       -14.5009 
  28   2.0000      -0.482572       -13.1315 
  29   2.0000      -0.452216       -12.3054 
  30   2.0000      -0.436374       -11.8744 
  31   2.0000      -0.423684       -11.5290 
  32   2.0000      -0.418961       -11.4005 
  33   2.0000      -0.408076       -11.1043 
  34   2.0000      -0.398504       -10.8438 
  35   2.0000      -0.391258       -10.6467 
  36   2.0000      -0.379660       -10.3311 
  37   2.0000      -0.373488       -10.1631 
  38   2.0000      -0.369998       -10.0682 
  39   2.0000      -0.360375        -9.8063 
  40   2.0000      -0.332572        -9.0497 
  41   2.0000      -0.327018        -8.8986 
  42   2.0000      -0.301650        -8.2083 
  43   2.0000      -0.292700        -7.9648 
  44   0.0000      -0.146546        -3.9877 
  45   0.0000      -0.094115        -2.5610 
  46   0.0000      -0.078231        -2.1288 
  47   0.0000      -0.071711        -1.9513 
  48   0.0000      -0.052453        -1.4273 
  49   0.0000      -0.046620        -1.2686 
  50   0.0000      -0.039277        -1.0688 
  51   0.0000      -0.018326        -0.4987 
  52   0.0000      -0.012885        -0.3506 
  53   0.0000       0.010288         0.2800 
  54   0.0000       0.080398         2.1878 
*Only the first 10 virtual orbitals were printed.

                    ********************************
                    * MULLIKEN POPULATION ANALYSIS *
                    ********************************

-----------------------
MULLIKEN ATOMIC CHARGES
-----------------------
   0 Zn:    1.112206
   1 H :    0.256885
   2 O :   -0.265369
   3 H :    0.254017
   4 H :    0.282181
   5 O :   -0.479104
   6 H :    0.280283
   7 H :    0.248732
   8 O :   -0.466908
   9 H :    0.357682
  10 H :    0.336948
  11 O :   -0.465507
  12 H :    0.348512
  13 H :    0.220804
  14 O :   -0.444169
  15 H :    0.311025
  16 H :    0.446816
  17 O :   -0.799937
  18 H :    0.464902
Sum of atomic charges:    2.0000000

--------------------------------
MULLIKEN REDUCED ORBITAL CHARGES
--------------------------------
  0 Zns       :     6.495246  s :     6.495246
      pz      :     4.209033  p :    12.572151
      px      :     4.142369
      py      :     4.220749
      dz2     :     1.946545  d :     9.819275
      dxz     :     1.960748
      dyz     :     1.947958
      dx2y2   :     1.993488
      dxy     :     1.970535
      f0      :     0.000242  f :     0.001123
      f+1     :     0.000210
      f-1     :     0.000298
      f+2     :     0.000141
      f-2     :     0.000170
      f+3     :     0.000037
      f-3     :     0.000025

  1 H s       :     0.676932  s :     0.676932
      pz      :     0.015065  p :     0.066183
      px      :     0.022357
      py      :     0.028761

  2 O s       :     3.661032  s :     3.661032
      pz      :     1.565453  p :     4.597663
      px      :     1.428972
      py      :     1.603238
      dz2     :     0.000577  d :     0.006673
      dxz     :     0.002472
      dyz     :     0.000953
      dx2y2   :     0.001219
      dxy     :     0.001451

  3 H s       :     0.680847  s :     0.680847
      pz      :     0.021865  p :     0.065136
      px      :     0.029651
      py      :     0.013620

  4 H s       :     0.697352  s :     0.697352
      pz      :     0.009982  p :     0.020466
      px      :     0.003197
      py      :     0.007288

  5 O s       :     3.936351  s :     3.936351
      pz      :     1.506862  p :     4.538954
      px      :     1.299275
      py      :     1.732817
      dz2     :     0.000752  d :     0.003799
      dxz     :     0.000284
      dyz     :     0.001249
      dx2y2   :     0.001276
      dxy     :     0.000238

  6 H s       :     0.699132  s :     0.699132
      pz      :     0.003436  p :     0.020585
      px      :     0.013582
      py      :     0.003567

  7 H s       :     0.709424  s :     0.709424
      pz      :     0.020077  p :     0.041844
      px      :     0.008748
      py      :     0.013019

  8 O s       :     3.934212  s :     3.934212
      pz      :     1.539959  p :     4.528417
      px      :     1.343290
      py      :     1.645169
      dz2     :     0.000646  d :     0.004279
      dxz     :     0.000367
      dyz     :     0.001472
      dx2y2   :     0.001273
      dxy     :     0.000521

  9 H s       :     0.621469  s :     0.621469
      pz      :     0.003055  p :     0.020849
      px      :     0.014676
      py      :     0.003118

 10 H s       :     0.641541  s :     0.641541
      pz      :     0.010625  p :     0.021511
      px      :     0.003254
      py      :     0.007632

 11 O s       :     3.939599  s :     3.939599
      pz      :     1.535406  p :     4.521623
      px      :     1.357209
      py      :     1.629008
      dz2     :     0.001090  d :     0.004285
      dxz     :     0.000459
      dyz     :     0.001445
      dx2y2   :     0.001164
      dxy     :     0.000127

 12 H s       :     0.630426  s :     0.630426
      pz      :     0.003272  p :     0.021062
      px      :     0.014437
      py      :     0.003353

 13 H s       :     0.757740  s :     0.757740
      pz      :     0.007824  p :     0.021456
      px      :     0.005359
      py      :     0.008272

 14 O s       :     3.941626  s :     3.941626
      pz      :     1.392745  p :     4.498710
      px      :     1.393000
      py      :     1.712965
      dz2     :     0.000877  d :     0.003834
      dxz     :     0.000322
      dyz     :     0.001229
      dx2y2   :     0.001180
      dxy     :     0.000225

 15 H s       :     0.663648  s :     0.663648
      pz      :     0.005273  p :     0.025328
      px      :     0.016251
      py      :     0.003803

 16 H s       :     0.512915  s :     0.512915
      pz      :     0.023084  p :     0.040270
      px      :     0.003352
      py      :     0.013834

 17 O s       :     3.866800  s :     3.866800
      pz      :     1.713798  p :     4.915390
      px      :     1.449991
      py      :     1.751600
      dz2     :     0.005336  d :     0.017747
      dxz     :     0.003858
      dyz     :     0.005010
      dx2y2   :     0.002114
      dxy     :     0.001429

 18 H s       :     0.514338  s :     0.514338
      pz      :     0.002678  p :     0.020760
      px      :     0.015230
      py      :     0.002852



                     *******************************
                     * LOEWDIN POPULATION ANALYSIS *
                     *******************************

----------------------
LOEWDIN ATOMIC CHARGES
----------------------
   0 Zn:    0.897706
   1 H :    0.163069
   2 O :   -0.012003
   3 H :    0.159871
   4 H :    0.242089
   5 O :   -0.399776
   6 H :    0.240034
   7 H :    0.152603
   8 O :   -0.353501
   9 H :    0.304323
  10 H :    0.286118
  11 O :   -0.355310
  12 H :    0.296368
  13 H :    0.148264
  14 O :   -0.355234
  15 H :    0.242797
  16 H :    0.295483
  17 O :   -0.354166
  18 H :    0.401265

-------------------------------
LOEWDIN REDUCED ORBITAL CHARGES
-------------------------------
  0 Zns       :     6.448393  s :     6.448393
      pz      :     4.308896  p :    12.728657
      px      :     4.161742
      py      :     4.258019
      dz2     :     1.981179  d :     9.923147
      dxz     :     1.982408
      dyz     :     1.982590
      dx2y2   :     1.996871
      dxy     :     1.980099
      f0      :     0.000396  f :     0.002096
      f+1     :     0.000416
      f-1     :     0.000628
      f+2     :     0.000215
      f-2     :     0.000343
      f+3     :     0.000057
      f-3     :     0.000041

  1 H s       :     0.673060  s :     0.673060
      pz      :     0.042786  p :     0.163870
      px      :     0.046654
      py      :     0.074430

  2 O s       :     3.387882  s :     3.387882
      pz      :     1.561060  p :     4.610092
      px      :     1.441146
      py      :     1.607886
      dz2     :     0.000997  d :     0.014029
      dxz     :     0.005561
      dyz     :     0.001805
      dx2y2   :     0.002418
      dxy     :     0.003247

  3 H s       :     0.678553  s :     0.678553
      pz      :     0.060526  p :     0.161576
      px      :     0.065381
      py      :     0.035669

  4 H s       :     0.713905  s :     0.713905
      pz      :     0.022976  p :     0.044006
      px      :     0.005341
      py      :     0.015688

  5 O s       :     3.829022  s :     3.829022
      pz      :     1.520860  p :     4.566056
      px      :     1.314205
      py      :     1.730992
      dz2     :     0.000942  d :     0.004698
      dxz     :     0.000321
      dyz     :     0.001546
      dx2y2   :     0.001636
      dxy     :     0.000253

  6 H s       :     0.715455  s :     0.715455
      pz      :     0.006936  p :     0.044511
      px      :     0.030603
      py      :     0.006972

  7 H s       :     0.734509  s :     0.734509
      pz      :     0.042577  p :     0.112888
      px      :     0.023898
      py      :     0.046413

  8 O s       :     3.807839  s :     3.807839
      pz      :     1.547446  p :     4.540179
      px      :     1.344375
      py      :     1.648358
      dz2     :     0.000816  d :     0.005482
      dxz     :     0.000464
      dyz     :     0.001965
      dx2y2   :     0.001594
      dxy     :     0.000644

  9 H s       :     0.650100  s :     0.650100
      pz      :     0.006340  p :     0.045578
      px      :     0.033501
      py      :     0.005736

 10 H s       :     0.666607  s :     0.666607
      pz      :     0.024691  p :     0.047275
      px      :     0.005458
      py      :     0.017127

 11 O s       :     3.820084  s :     3.820084
      pz      :     1.540327  p :     4.530094
      px      :     1.360512
      py      :     1.629255
      dz2     :     0.001237  d :     0.005132
      dxz     :     0.000475
      dyz     :     0.001766
      dx2y2   :     0.001497
      dxy     :     0.000157

 12 H s       :     0.657271  s :     0.657271
      pz      :     0.006448  p :     0.046361
      px      :     0.033092
      py      :     0.006821

 13 H s       :     0.799943  s :     0.799943
      pz      :     0.023414  p :     0.051793
      px      :     0.010348
      py      :     0.018032

 14 O s       :     3.831936  s :     3.831936
      pz      :     1.398097  p :     4.518368
      px      :     1.403902
      py      :     1.716369
      dz2     :     0.001132  d :     0.004930
      dxz     :     0.000360
      dyz     :     0.001674
      dx2y2   :     0.001532
      dxy     :     0.000231

 15 H s       :     0.697380  s :     0.697380
      pz      :     0.012461  p :     0.059822
      px      :     0.039720
      py      :     0.007642

 16 H s       :     0.580243  s :     0.580243
      pz      :     0.073923  p :     0.124274
      px      :     0.007227
      py      :     0.043124

 17 O s       :     3.516047  s :     3.516047
      pz      :     1.686722  p :     4.791125
      px      :     1.404872
      py      :     1.699531
      dz2     :     0.014822  d :     0.046993
      dxz     :     0.010269
      dyz     :     0.014401
      dx2y2   :     0.004081
      dxy     :     0.003420

 18 H s       :     0.550265  s :     0.550265
      pz      :     0.006777  p :     0.048471
      px      :     0.035544
      py      :     0.006150



                      *****************************
                      * MAYER POPULATION ANALYSIS *
                      *****************************

  NA   - Mulliken gross atomic population
  ZA   - Total nuclear charge
  QA   - Mulliken gross atomic charge
  VA   - Mayer's total valence
  BVA  - Mayer's bonded valence
  FA   - Mayer's free valence

  ATOM       NA         ZA         QA         VA         BVA        FA
  0 Zn    28.8878    30.0000     1.1122     1.9514     1.9514    -0.0000
  1 H      0.7431     1.0000     0.2569     0.9587     0.9587     0.0000
  2 O      8.2654     8.0000    -0.2654     2.2708     2.2708     0.0000
  3 H      0.7460     1.0000     0.2540     0.9574     0.9574    -0.0000
  4 H      0.7178     1.0000     0.2822     0.9231     0.9231     0.0000
  5 O      8.4791     8.0000    -0.4791     1.9950     1.9950     0.0000
  6 H      0.7197     1.0000     0.2803     0.9215     0.9215     0.0000
  7 H      0.7513     1.0000     0.2487     0.9924     0.9924     0.0000
  8 O      8.4669     8.0000    -0.4669     2.0500     2.0500     0.0000
  9 H      0.6423     1.0000     0.3577     0.8733     0.8733    -0.0000
 10 H      0.6631     1.0000     0.3369     0.8861     0.8861    -0.0000
 11 O      8.4655     8.0000    -0.4655     2.1373     2.1373     0.0000
 12 H      0.6515     1.0000     0.3485     0.8774     0.8774    -0.0000
 13 H      0.7792     1.0000     0.2208     0.9476     0.9476     0.0000
 14 O      8.4442     8.0000    -0.4442     1.8962     1.8962     0.0000
 15 H      0.6890     1.0000     0.3110     0.9177     0.9177    -0.0000
 16 H      0.5532     1.0000     0.4468     0.8382     0.8382     0.0000
 17 O      8.7999     8.0000    -0.7999     1.9732     1.9732     0.0000
 18 H      0.5351     1.0000     0.4649     0.7881     0.7881     0.0000

  Mayer bond orders larger than 0.100000
B(  0-Zn,  7-H ) :   0.2089 B(  0-Zn,  8-O ) :   0.3291 B(  0-Zn, 11-O ) :   0.3292 
B(  0-Zn, 13-H ) :   0.1522 B(  0-Zn, 14-O ) :   0.1668 B(  0-Zn, 17-O ) :   0.6391 
B(  1-H ,  2-O ) :   0.9306 B(  2-O ,  3-H ) :   0.9396 B(  2-O , 16-H ) :   0.3517 
B(  4-H ,  5-O ) :   0.9046 B(  5-O ,  6-H ) :   0.9115 B(  5-O ,  7-H ) :   0.1054 
B(  7-H ,  8-O ) :   0.6046 B(  8-O ,  9-H ) :   0.8413 B(  8-O , 15-H ) :   0.1104 
B( 10-H , 11-O ) :   0.8627 B( 11-O , 12-H ) :   0.8625 B( 13-H , 14-O ) :   0.8018 
B( 14-O , 15-H ) :   0.7886 B( 16-H , 17-O ) :   0.4294 B( 17-O , 18-H ) :   0.7117 


Environment variable NBOEXE for nbo6.exe or nbo5.exe not set! Skipping NBO-Analysis

-------
TIMINGS
-------

Total SCF time: 0 days 0 hours 0 min 5 sec 

Total time                  ....       5.544 sec
Sum of individual times     ....       5.490 sec  ( 99.0%)

SCF preparation             ....       1.193 sec  ( 21.5%)
Fock matrix formation       ....       3.960 sec  ( 71.4%)
  Startup                   ....       0.018 sec  (  0.5% of F)
  Split-RI-J                ....       0.291 sec  (  7.4% of F)
  Chain of spheres X        ....       2.003 sec  ( 50.6% of F)
  XC integration            ....       0.612 sec  ( 15.4% of F)
    XC Preparation          ....       0.000 sec  (  0.0% of XC)
    Basis function eval.    ....       0.140 sec  ( 22.9% of XC)
    Density eval.           ....       0.044 sec  (  7.1% of XC)
    XC-Functional eval.     ....       0.043 sec  (  7.0% of XC)
    XC-Potential eval.      ....       0.055 sec  (  8.9% of XC)
  CPCM terms                ....       0.970 sec  ( 24.5% of F)
Diagonalization             ....       0.000 sec  (  0.0%)
Density matrix formation    ....       0.038 sec  (  0.7%)
Total Energy calculation    ....       0.037 sec  (  0.7%)
Population analysis         ....       0.017 sec  (  0.3%)
Orbital Transformation      ....       0.024 sec  (  0.4%)
Orbital Orthonormalization  ....       0.000 sec  (  0.0%)
DIIS solution               ....       0.144 sec  (  2.6%)
SOSCF solution              ....       0.077 sec  (  1.4%)
Finished LeanSCF after   5.6 sec

Maximum memory used throughout the entire LEANSCF-calculation: 18.3 MB


-------------------------------------------------------------------------------
                          DFT DISPERSION CORRECTION                            
                                                                               
                              DFTD3 V3.1  Rev 1                                
                          USING Becke-Johnson damping                          
-------------------------------------------------------------------------------
The B3LYP functional is recognized
Active option DFTDOPT                   ...         4   

molecular C6(AA) [au] = 3751.262075 


            DFT-D V3
 parameters
 s6 scaling factor         :     1.0000 
 a1 scaling factor         :     0.3981 
 s8 scaling factor         :     1.9889 
 a2 scaling factor         :     4.4211 
 ad hoc parameters k1-k3   :    16.0000     1.3333    -4.0000 

 Edisp/kcal,au: -17.584370949373  -0.028022475836 
 E6   /kcal   :  -8.575405007 
 E8   /kcal   :  -9.008965943 
 % E8         :  51.232801951 

-------------------------   ----------------
Dispersion correction           -0.028022476
-------------------------   ----------------


-------------------------   --------------------
FINAL SINGLE POINT ENERGY     -2235.892661864088
-------------------------   --------------------



           ************************************************************
           *        Program running with 32 parallel MPI-processes    *
           *              working on a common directory               *
           ************************************************************
------------------------------------------------------------------------------
                         ORCA SCF GRADIENT CALCULATION
------------------------------------------------------------------------------

Nuc. rep. gradient        (SHARK) ... done (  0.0 sec)
HCore & Overlap gradient  (SHARK) ... done (  0.0 sec)
Split-RIJ-J gradient      (SHARK) ... done (  0.2 sec)
COSX-gradient                     ... done (  0.6 sec)
XC gradient                       ... done (  0.2 sec)
CPCM gradient                     ... done (  0.2 sec)
Dispersion correction             ... done (  0.1 sec)

-------------------
DISPERSION GRADIENT
-------------------

   1   Zn  :   -0.000625461   -0.000106332    0.000558899
   2   H   :    0.000015532   -0.000139445   -0.000139614
   3   O   :   -0.000045974   -0.000353409   -0.000376103
   4   H   :   -0.000057119   -0.000124218   -0.000150494
   5   H   :   -0.000058598    0.000425193   -0.000454333
   6   O   :    0.000007072    0.000510442   -0.000609916
   7   H   :    0.000161304    0.000392637   -0.000457925
   8   H   :    0.000091251    0.000153978   -0.000034284
   9   O   :    0.000296683    0.000454148    0.000267436
  10   H   :    0.000474210    0.000349913    0.000202310
  11   H   :   -0.000114736   -0.000422733    0.000229909
  12   O   :   -0.000042391   -0.000545886    0.000288464
  13   H   :    0.000205108   -0.000470630    0.000338518
  14   H   :   -0.000140969    0.000129414    0.000126028
  15   O   :   -0.000295856    0.000207224    0.000366121
  16   H   :   -0.000084389    0.000278215    0.000423799
  17   H   :   -0.000070039   -0.000306356   -0.000266803
  18   O   :   -0.000073424   -0.000193072   -0.000176692
  19   H   :    0.000357796   -0.000239083   -0.000135320

Difference to translation invariance:
           :    0.0000000000   -0.0000000000   -0.0000000000

Difference to rotation invariance:
           :   -0.0000000000    0.0000000000    0.0000000000

Norm of the Dispersion gradient    ...    0.0023018646
RMS gradient                       ...    0.0003048894
MAX gradient                       ...    0.0006254613

------------------
CARTESIAN GRADIENT
------------------

   1   Zn  :    0.226239980   -0.217167125   -0.582261041
   2   H   :   -0.007040414   -0.012151625   -0.023300300
   3   O   :    0.017130123   -0.002749419    0.004553843
   4   H   :   -0.002748743   -0.015149476   -0.018924959
   5   H   :   -0.017708345   -0.064228817   -0.090703276
   6   O   :   -0.094767873    0.075348728    0.102543315
   7   H   :    0.110272777   -0.012402481   -0.015894881
   8   H   :   -0.057067533   -0.113220840   -0.033783745
   9   O   :   -0.091586571    0.066692110    0.074016188
  10   H   :    0.108469747   -0.007985497   -0.016236638
  11   H   :   -0.016474300   -0.059443016   -0.089996601
  12   O   :   -0.088289446    0.062854516    0.118776533
  13   H   :    0.107734819   -0.011296387   -0.018019498
  14   H   :   -0.002929801   -0.059344378   -0.096608804
  15   O   :   -0.086126283    0.073298882    0.098617979
  16   H   :    0.099426908   -0.017618652   -0.008108331
  17   H   :   -0.014337085   -0.008349903   -0.009038057
  18   O   :   -0.290043734    0.331111057    0.616216487
  19   H   :    0.099845774   -0.008197674   -0.011848211

Difference to translation invariance:
           :   -0.0000000000    0.0000000003    0.0000000004

Difference to rotation invariance:
           :   -0.0037795136    0.0021738121    0.0022339261

Norm of the Cartesian gradient     ...    1.1029670702
RMS gradient                       ...    0.1460915573
MAX gradient                       ...    0.6162164870

-------
TIMINGS
-------

Total SCF gradient time     ....        1.328 sec

Densities                   ....       0.001 sec  (  0.0%)
One electron gradient       ....       0.030 sec  (  2.3%)
RI-J Coulomb gradient       ....       0.197 sec  ( 14.9%)
COSX gradient               ....       0.618 sec  ( 46.6%)
XC gradient                 ....       0.164 sec  ( 12.3%)
CPCM gradient               ....       0.229 sec  ( 17.2%)
   A-Matrix (El+Nuc)        ....       0.091 sec  (  6.8%)
   Potential                ....       0.138 sec  ( 10.4%)

Maximum memory used throughout the entire SCFGRAD-calculation: 29.6 MB
------------------------------------------------------------------------------
                         ORCA GEOMETRY RELAXATION STEP
------------------------------------------------------------------------------

Reading the OPT-File                    .... done
Getting information on internals        .... done
Copying old internal coords+grads       .... done
Making the new internal coordinates     .... (2022 redundants) done
Validating the new internal coordinates .... (2022 redundants) done
[...]
   139. D(H  15,O  14,Zn  0,O   8)    -32.99 -0.000503    4.35    -28.64   
   140. D(H  15,O  14,Zn  0,H   7)    -50.90 -0.000550    3.19    -47.70   
   141. D(H  13,O  14,Zn  0,O  17)    125.48  0.000354   -8.79    116.70   
   142. D(H  13,O  14,Zn  0,O  11)    -14.37 -0.000409    2.69    -11.68   
   143. D(H  13,O  14,Zn  0,O   8)   -147.86 -0.000826    4.99   -142.86   
   144. D(H  13,O  14,O  11,H  12)    -93.66 -0.000154    1.62    -92.04   
   145. D(H  13,O  14,Zn  0,H   7)   -165.76 -0.000873    3.84   -161.92   
   146. D(Zn  0,O  14,O  11,H  12)    101.64  0.000293   -1.72     99.93   
   147. D(Zn  0,O  14,O  11,H  10)    -86.90 -0.000042    2.52    -84.38   
   148. D(H  15,O  14,O  11,H  12)      5.18  0.000046   -0.14      5.04   
   149. D(H  15,O  14,O  11,H  10)    176.64 -0.000289    4.10    180.74   
   150. D(H  15,O  14,O  11,Zn  0)    -96.46 -0.000247    1.57    -94.88   
   151. D(H   1,H  16,O   2,H   3)    115.49  0.000052    0.20    115.69   
   152. D(O  17,H  16,H   1,O   2)    178.81  0.000091   -0.87    177.94   
   153. D(H  18,O  17,H  16,H   1)     73.17  0.000046    1.12     74.28   
   154. D(Zn  0,O  17,H  16,H   1)    -85.71 -0.000320    1.37    -84.34   
   155. D(H  18,O  17,O   2,H   3)   -172.14  0.000127    0.41   -171.73   
   156. D(H  18,O  17,O   2,H   1)     72.34  0.000086    0.32     72.65   
   157. D(Zn  0,O  17,O   2,H   3)     28.32 -0.000153    0.80     29.13   
   158. D(Zn  0,O  17,O   2,H   1)    -87.20 -0.000193    0.71    -86.49   
   159. D(H  18,O  17,Zn  0,O  14)    136.27 -0.000984   13.85    150.12   
   160. D(H  18,O  17,Zn  0,O  11)    -87.07  0.000073    1.59    -85.48   
   161. D(H  18,O  17,Zn  0,O   8)     50.94  0.000071    0.18     51.12   
   162. D(H  18,O  17,Zn  0,H   7)     62.77  0.000510    0.14     62.91   
   163. D(H  16,O  17,Zn  0,O  14)    -66.67 -0.000644   13.67    -53.00   
   164. D(H  16,O  17,Zn  0,O  11)     69.99  0.000412    1.41     71.40   
   165. D(H  16,O  17,Zn  0,O   8)   -152.00  0.000411    0.01   -151.99   
   166. D(H  16,O  17,Zn  0,H   7)   -140.17  0.000850   -0.04   -140.21   
    ----------------------------------------------------------------------------

Geometry step timings:
Preparation and reading OPT file:      0.002 s (17.800 %)
Internal coordinates            :      0.000 s ( 0.474 %)
B/P matrices and projection     :      0.002 s (19.788 %)
Hessian update/contruction      :      0.001 s ( 8.496 %)
Making the step                 :      0.003 s (33.169 %)
Converting the step to Cartesian:      0.000 s ( 2.180 %)
Storing new data                :      0.000 s ( 0.353 %)
Checking convergence            :      0.000 s ( 0.222 %)
Final printing                  :      0.002 s (17.467 %)
Total time                      :      0.010 s

Time for energy+gradient        :     10.160 s
Time for complete geometry iter :     11.330 s

         *************************************************************
         *                GEOMETRY OPTIMIZATION CYCLE  37            *
         *************************************************************
---------------------------------
CARTESIAN COORDINATES (ANGSTROEM)
---------------------------------
  Zn     1.001933    0.971903    1.152251
  H      0.751275   -2.128400   -2.097477
  O      0.525170   -1.207985   -2.301473
  H     -0.443960   -1.176920   -2.226979
  H      1.717874    3.006785   -1.986136
  O      1.829429    3.682882   -1.294502
  H      2.589880    4.204674   -1.586925
  H      1.985108    3.027907    0.151785
  O      1.931560    2.746596    1.126905
  H      2.837341    2.741769    1.468679
  H      1.063895   -1.505724    2.049450
  O      1.158296   -0.616804    2.433659
  H      1.966168   -0.645911    2.974256
  H     -0.588120    1.065540    3.085431
  O     -0.343180    1.749541    2.436899
  H      0.108417    2.452696    2.944326
  H      1.232769   -0.241272   -1.283993
  O      1.669470    0.390069   -0.627600
  H      2.620275    0.437354   -0.809355

----------------------------
CARTESIAN COORDINATES (A.U.)
----------------------------
  NO LB      ZA    FRAG     MASS         X           Y           Z
   0 Zn   30.0000    0    65.380    1.893378    1.836631    2.177439
   1 H     1.0000    0     1.008    1.419705   -4.022093   -3.963656
   2 O     8.0000    0    15.999    0.992428   -2.282762   -4.349154
   3 H     1.0000    0     1.008   -0.838964   -2.224056   -4.208381
   4 H     1.0000    0     1.008    3.246311    5.682000   -3.753253
   5 O     8.0000    0    15.999    3.457121    6.959638   -2.446253
   6 H     1.0000    0     1.008    4.894164    7.945682   -2.998854
   7 H     1.0000    0     1.008    3.751311    5.721915    0.286832
   8 O     8.0000    0    15.999    3.650120    5.190314    2.129542
   9 H     1.0000    0     1.008    5.361797    5.181193    2.775400
  10 H     1.0000    0     1.008    2.010471   -2.845406    3.872899
  11 O     8.0000    0    15.999    2.188862   -1.165591    4.598949
  12 H     1.0000    0     1.008    3.715519   -1.220596    5.620528
  13 H     1.0000    0     1.008   -1.111386    2.013579    5.830620
  14 O     8.0000    0    15.999   -0.648516    3.306153    4.605072
  15 H     1.0000    0     1.008    0.204879    4.634924    5.563969
  16 H     1.0000    0     1.008    2.329596   -0.455937   -2.426395
  17 O     8.0000    0    15.999    3.154841    0.737124   -1.185993
  18 H     1.0000    0     1.008    4.951601    0.826480   -1.529460

--------------------------------
INTERNAL COORDINATES (ANGSTROEM)
--------------------------------
 Zn     0   0   0     0.000000000000     0.00000000     0.00000000
 H      1   0   0     4.498381893490     0.00000000     0.00000000
 O      2   1   0     0.969485140877    60.70447510     0.00000000
 H      3   2   1     0.972485628977   104.27800406   263.28321104
 H      1   2   3     3.808252592382    77.49014968   330.74910850
 O      5   1   2     0.973606415786    78.88187565   183.23153567
 H      6   5   1     0.967504179582   104.46949618   140.50730836
 H      6   5   1     1.595296645943   111.72202769    15.87445724
 O      8   6   5     1.016298938588   168.05960732   230.88725313
 H      9   8   6     0.968127250639   106.90616573   229.37573710
 H      1   2   3     2.635800048592    66.38238194   165.46501294
 O     11   1   2     0.972988546540    43.77344404   174.59091627
 H     12  11   1     0.972496554504   105.82847875   229.32128268
 H      1   2   3     2.504839749124   123.22589947   109.78774988
 O     14   1   2     0.973882624137    49.65815648   234.33944376
 H     15  14   1     0.977674962890   106.00284500   244.73557628
 H      3   2   1     1.571782216771   110.04185663    23.91819751
 O     17   3   2     1.010024455753   178.81919502   226.93339691
 H     18  17   3     0.969175045906   109.43835262   205.48653756

---------------------------
INTERNAL COORDINATES (A.U.)
---------------------------
 Zn     0   0   0     0.000000000000     0.00000000     0.00000000
 H      1   0   0     8.500709824485     0.00000000     0.00000000
 O      2   1   0     1.832061407163    60.70447510     0.00000000
 H      3   2   1     1.837731507940   104.27800406   263.28321104
 H      1   2   3     7.196554448397    77.49014968   330.74910850
 O      5   1   2     1.839849488064    78.88187565   183.23153567
 H      6   5   1     1.828317932835   104.46949618   140.50730836
 H      6   5   1     3.014673763195   111.72202769    15.87445724
 O      8   6   5     1.920526664126   168.05960732   230.88725313
 H      9   8   6     1.829495366493   106.90616573   229.37573710
 H      1   2   3     4.980940235616    66.38238194   165.46501294
 O     11   1   2     1.838681884403    43.77344404   174.59091627
 H     12  11   1     1.837752154194   105.82847875   229.32128268
 H      1   2   3     4.733461135205   123.22589947   109.78774988
 O     14   1   2     1.840371446204    49.65815648   234.33944376
 H     15  14   1     1.847537927853   106.00284500   244.73557628
 H      3   2   1     2.970237931864   110.04185663    23.91819751
 O     17   3   2     1.908669609936   178.81919502   226.93339691
 H     18  17   3     1.831475412592   109.43835262   205.48653756



           ************************************************************
           *        Program running with 32 parallel MPI-processes    *
           *              working on a common directory               *
           ************************************************************
------------------------------------------------------------------------------
                   ___                                                        
                  /   \      - P O W E R E D   B Y -                         
                 /     \                                                     
                 |  |  |   _    _      __       _____    __    __             
                 |  |  |  | |  | |    /  \     |  _  \  |  |  /  |          
                  \  \/   | |  | |   /    \    | | | |  |  | /  /          
                 / \  \   | |__| |  /  /\  \   | |_| |  |  |/  /          
                |  |  |   |  __  | /  /__\  \  |    /   |      \           
                |  |  |   | |  | | |   __   |  |    \   |  |\   \          
                \     /   | |  | | |  |  |  |  | |\  \  |  | \   \       
                 \___/    |_|  |_| |__|  |__|  |_| \__\ |__|  \__/        
                                                                              
                      - O R C A' S   B I G   F R I E N D -                    
                                      &                                       
                       - I N T E G R A L  F E E D E R -                       
                                                                              
 v1 FN, 2020, v2 2021, v3 2022-2024                                           
------------------------------------------------------------------------------


----------------------
SHARK INTEGRAL PACKAGE
----------------------

Number of atoms                             ...     19
Number of basis functions                   ...    175
Number of shells                            ...     83
Maximum angular momentum                    ...      3
Integral batch strategy                     ... SHARK/LIBINT Hybrid
RI-J (if used) integral strategy            ... SPLIT-RIJ (Revised 2003 algorithm where possible)
Printlevel                                  ...      1
Contraction scheme used                     ... SEGMENTED contraction
Prescreening option                         ... SCHWARTZ
   Thresh                                   ... 2.500e-11
   Tcut                                     ... 2.500e-12
   Tpresel                                  ... 2.500e-12 
Coulomb Range Separation                    ... NOT USED
Exchange Range Separation                   ... NOT USED
Multipole approximations                    ... NOT USED
Finite Nucleus Model                        ... NOT USED
CABS basis                                  ... NOT available
Auxiliary Coulomb fitting basis             ... AVAILABLE
   # of basis functions in Aux-J            ...    515
   # of shells in Aux-J                     ...    173
   Maximum angular momentum in Aux-J        ...      4
Auxiliary J/K fitting basis                 ... NOT available
Auxiliary Correlation fitting basis         ... NOT available
Auxiliary 'external' fitting basis          ... NOT available

Checking pre-screening integrals            ... done (  0.0 sec) Dimension = 83
Check shell pair data                       ... done (  0.0 sec)
Shell pair information
Shell pair cut-off parameter TPreSel        ...   2.5e-12
Total number of shell pairs                 ...      3486
Shell pairs after pre-screening             ...      2947
Total number of primitive shell pairs       ...     13195
Primitive shell pairs kept                  ...      7611
          la=0 lb=0:    992 shell pairs
          la=1 lb=0:   1071 shell pairs
          la=1 lb=1:    302 shell pairs
          la=2 lb=0:    315 shell pairs
          la=2 lb=1:    167 shell pairs
          la=2 lb=2:     28 shell pairs
          la=3 lb=0:     43 shell pairs
          la=3 lb=1:     22 shell pairs
          la=3 lb=2:      6 shell pairs
          la=3 lb=3:      1 shell pairs

Calculating one electron integrals          ... done (  0.0 sec)
Calculating RI/J V-Matrix + Cholesky decomp.... done (  0.0 sec)
Calculating Nuclear repulsion               ... done (  0.0 sec) ENN=    647.183876646806 Eh

Diagonalization of the overlap matrix:
Smallest eigenvalue                        ... 2.252e-02
Time for diagonalization                   ...    0.003 sec
Threshold for overlap eigenvalues          ... 1.000e-07
Number of eigenvalues below threshold      ... 0
Time for construction of square roots      ...    0.001 sec
Total time needed                          ...    0.006 sec

-------------------
DFT GRID GENERATION
-------------------

General Integration Accuracy     IntAcc      ... 4.388
Radial Grid Type                 RadialGrid  ... OptM3 with GC (2021)
Angular Grid (max. ang.)         AngularGrid ... 4 (Lebedev-302)
Angular grid pruning method      GridPruning ... 4 (adaptive)
Weight generation scheme         WeightScheme... mBecke (2022)
Basis function cutoff            BFCut       ... 1.0000e-11
Integration weight cutoff        WCut        ... 1.0000e-14
Partially contracted basis set               ... off
Rotationally invariant grid construction     ... off
Angular grids for H and He will be reduced by one unit
Core-polarized basis detected: some atoms will have their core
                               angular grid increased.

Total number of grid points                  ...    86690
Total number of batches                      ...     1366
Average number of points per batch           ...       63
Average number of grid points per atom       ...     4563

--------------------
COSX GRID GENERATION
--------------------

GRIDX 1
-------
General Integration Accuracy     IntAcc      ... 3.816
Radial Grid Type                 RadialGrid  ... OptM3 with GC (2021)
Angular Grid (max. ang.)         AngularGrid ... 1 (Lebedev-50)
Angular grid pruning method      GridPruning ... 4 (adaptive)
Weight generation scheme         WeightScheme... mBecke (2022)
Basis function cutoff            BFCut       ... 1.0000e-11
Integration weight cutoff        WCut        ... 1.0000e-14
Partially contracted basis set               ... on
Rotationally invariant grid construction     ... off
Angular grids for H and He will be reduced by one unit
Core-polarized basis detected: some atoms will have their core
                               angular grid increased.

Total number of grid points                  ...    15592
Total number of batches                      ...      132
Average number of points per batch           ...      118
Average number of grid points per atom       ...      821
UseSFitting                                  ... on

GRIDX 2
-------
General Integration Accuracy     IntAcc      ... 4.020
Radial Grid Type                 RadialGrid  ... OptM3 with GC (2021)
Angular Grid (max. ang.)         AngularGrid ... 2 (Lebedev-110)
Angular grid pruning method      GridPruning ... 4 (adaptive)
Weight generation scheme         WeightScheme... mBecke (2022)
Basis function cutoff            BFCut       ... 1.0000e-11
Integration weight cutoff        WCut        ... 1.0000e-14
Partially contracted basis set               ... on
Rotationally invariant grid construction     ... off
Angular grids for H and He will be reduced by one unit
Core-polarized basis detected: some atoms will have their core
                               angular grid increased.

Total number of grid points                  ...    26180
Total number of batches                      ...      215
Average number of points per batch           ...      121
Average number of grid points per atom       ...     1378
UseSFitting                                  ... on

GRIDX 3
-------
General Integration Accuracy     IntAcc      ... 4.338
Radial Grid Type                 RadialGrid  ... OptM3 with GC (2021)
Angular Grid (max. ang.)         AngularGrid ... 3 (Lebedev-194)
Angular grid pruning method      GridPruning ... 4 (adaptive)
Weight generation scheme         WeightScheme... mBecke (2022)
Basis function cutoff            BFCut       ... 1.0000e-11
Integration weight cutoff        WCut        ... 1.0000e-14
Partially contracted basis set               ... on
Rotationally invariant grid construction     ... off
Angular grids for H and He will be reduced by one unit
Core-polarized basis detected: some atoms will have their core
                               angular grid increased.

Total number of grid points                  ...    50313
Total number of batches                      ...      403
Average number of points per batch           ...      124
Average number of grid points per atom       ...     2648
UseSFitting                                  ... on
Initializing property integral containers    ... done (  0.0 sec)

SHARK setup successfully completed in   0.7 seconds

Maximum memory used throughout the entire STARTUP-calculation: 24.9 MB


           ************************************************************
           *        Program running with 32 parallel MPI-processes    *
           *              working on a common directory               *
           ************************************************************
Occupation numbers will be reassigned to an Aufbau configuration
             **** ENERGY FILE WAS UPDATED (zinc_hydrate_1.en.tmp) ****
Finished Guess after   1.1 sec
Maximum memory used throughout the entire GUESS-calculation: 11.1 MB


           ************************************************************
           *        Program running with 32 parallel MPI-processes    *
           *              working on a common directory               *
           ************************************************************
--------------------
CPCM SOLVATION MODEL
--------------------
CPCM parameters:
  Epsilon                                         ...      80.1510
  Refrac                                          ...       1.3328
  Rsolv                                           ...       1.3000
  Surface type                                    ... GAUSSIAN VDW
  Discretization scheme                           ... Constant charge density
    Threshold for H atoms                         ...       5.0000 (charges/Ang^2)
    Threshold for non-H atoms                     ...       5.0000 (charges/Ang^2)
  Epsilon function type                           ...         CPCM
Solvent:                                          ... WATER
Radii:
  Scheme                                          ... Element-dependent radii
  Radius for Zn used is    3.1521 Bohr (=   1.6680 Ang.)
  Radius for H  used is    2.4944 Bohr (=   1.3200 Ang.)
  Radius for O  used is    3.4469 Bohr (=   1.8240 Ang.)
Calculating surface                               ...        done! (  0.0s)
Cavity surface points                             ...         1662
Cavity Volume                                     ...    1069.5974
Cavity Surface-area                               ...     726.2954
Calculating surface distance matrix               ...        done! (  0.0s)
Performing Cholesky decomposition & store         ...        done! (  0.1s)
Overall time for CPCM initialization              ...                 0.1s

----------------------------------------D-I-I-S--------------------------------------------
Iteration    Energy (Eh)           Delta-E    RMSDP     MaxDP     DIISErr   Damp  Time(sec)
-------------------------------------------------------------------------------------------
               ***  Starting incremental Fock matrix formation  ***
    1    -2236.9075906787766144     0.00e+00  2.47e-04  9.85e-03  2.46e-02  0.700   0.3
