
                                 *****************
                                 * O   R   C   A *
                                 *****************

                                            #,                                       
                                            ###                                      
                                            ####                                     
                                            #####                                    
                                            ######                                   
                                           ########,                                 
                                     ,,################,,,,,                         
                               ,,#################################,,                 
                          ,,##########################################,,             
                       ,#########################################, ''#####,          
                    ,#############################################,,   '####,        
                  ,##################################################,,,,####,       
                ,###########''''           ''''###############################       
              ,#####''   ,,,,##########,,,,          '''####'''          '####       
            ,##' ,,,,###########################,,,                        '##       
           ' ,,###''''                  '''############,,,                           
         ,,##''                                '''############,,,,        ,,,,,,###''
      ,#''                                            '''#######################'''  
     '                                                          ''''####''''         
             ,#######,   #######,   ,#######,      ##                                
            ,#'     '#,  ##    ##  ,#'     '#,    #''#        ,####,   ,####,        
            ##       ##  ##   ,#'  ##            #'  '#       #'       #'  '#        
            ##       ##  #######   ##           ,######,      #####,   #    #        
            '#,     ,#'  ##    ##  '#,     ,#' ,#      #,     #,   #   #,  ,#        
             '#######'   ##     ##  '#######'  #'      '#     '####' # '####'        



                #########################################################
                #                        -***-                          #
                #          Department of theory and spectroscopy        #
                #                                                       #
                #                      Frank Neese                      #
                #                                                       #
                #     Directorship, Architecture, Infrastructure        #
                #                    SHARK, DRIVERS                     #
                #        Core code/Algorithms in most modules           #
                #                                                       #
                #        Max Planck Institute fuer Kohlenforschung      #
                #                Kaiser Wilhelm Platz 1                 #
                #                 D-45470 Muelheim/Ruhr                 #
                #                      Germany                          #
                #                                                       #
                #                  All rights reserved                  #
                #                        -***-                          #
                #########################################################


                         Program Version 6.0.1  -  RELEASE   -


 With contributions from (in alphabetic order):
[Max-Planck-Institut fuer Kohlenforschung]                               
  Daniel Aravena         : Magnetic Suceptibility                        
  Michael Atanasov       : Ab Initio Ligand Field Theory (pilot matlab implementation)
  Alexander A. Auer      : GIAO ZORA, VPT2 properties, NMR spectrum      
  Ute Becker             : All parallelization in ORCA, NUMFREQ, NUMCALC 
  Giovanni Bistoni       : ED, misc. LED, open-shell LED, HFLD           
  Martin Brehm           : Molecular dynamics                            
  Dmytro Bykov           : pre 5.0 version of the SCF Hessian            
  Marcos Casanova-Páez   : Triplet and SCS-CIS(D). UHF-(DLPNO)-IP/EA/STEOM-CCSD. UHF-CVS-IP/STEOM-CCSD   
  Vijay G. Chilkuri      : MRCI spin determinant printing, contributions to CSF-ICE 
  Pauline Colinet        : FMM embedding                                 
  Dipayan Datta          : RHF DLPNO-CCSD density                        
  Achintya Kumar Dutta   : EOM-CC, STEOM-CC                              
  Nicolas Foglia         : Exact transition moments, OPA infrastructure, MCD improvements    
  Dmitry Ganyushin       : Spin-Orbit,Spin-Spin,Magnetic field MRCI      
  Miquel Garcia-Rates    : C-PCM and meta-GGA Hessian, CCSD/C-PCM, Gaussian charge scheme 
  Tiago L. C. Gouveia    : GS-ROHF, GS-ROCIS                             
  Yang Guo               : DLPNO-NEVPT2, F12-NEVPT2, CIM, IAO-localization        
  Andreas Hansen         : Spin unrestricted coupled pair/coupled cluster methods 
  Ingolf Harden          : AUTO-CI MPn and infrastructure                
  Benjamin Helmich-Paris : MC-RPA, TRAH-(SCF,CASSCF), AVAS, COSX integrals, SCF dyn. polar. 
  Lee Huntington         : MR-EOM, pCC                                   
  Robert Izsak           : Overlap fitted RIJCOSX, COSX-SCS-MP3, EOM     
  Riya Kayal             : Wick's Theorem for AUTO-CI, AUTO-CI UHF-CCSDT 
  Emily Kempfer          : AUTO-CI, RHF CISDT and CCSDT                  
  Christian Kollmar      : KDIIS, OOCD, Brueckner-CCSD(T), CCSD density, CASPT2, CASPT2-K, improved NEVPT2 
  Axel Koslowski         : Symmetry handling                             
  Simone Kossmann        : meta-GGA functionals, TD-DFT gradient, OOMP2, (MP2 Hessian; deprecated post 5.0) 
  Lucas Lang             : DCDCAS                                        
  Marvin Lechner         : AUTO-CI (C++ implementation), FIC-MRCC        
  Spencer Leger          : CASSCF response                               
  Dagmar Lenk            : GEPOL surface, SMD, ORCA-2-JSON               
  Dimitrios Liakos       : Extrapolation schemes; Compound Job, initial MDCI parallelization 
  Dimitrios Manganas     : Further ROCIS development; embedding schemes. LFT, Crystal Embedding 
  Dimitrios Pantazis     : SARC Basis sets                               
  Anastasios Papadopoulos: AUTO-CI, single reference methods and gradients 
  Taras Petrenko         : pre 6.0 DFT Hessian and TD-DFT gradient, (ASA, deprecated), ECA, 1-Electron XAS/XES, NRVS 
  Peter Pinski           : DLPNO-MP2, DLPNO-MP2 Gradient                 
  Christoph Reimann      : Effective Core Potentials                     
  Marius Retegan         : Local ZFS, SOC                                
  Christoph Riplinger    : Optimizer, TS searches, QM/MM, DLPNO-CCSD(T), (RO)-DLPNO pert. Triples 
  Michael Roemelt        : Original ROCIS implementation                 
  Masaaki Saitow         : Open-shell DLPNO-CCSD energy and density      
  Barbara Sandhoefer     : DKH picture change effects                    
  Kantharuban Sivalingam : CASSCF convergence/infrastructure, NEVPT2 and variants, FIC-MRCI 
  Bernardo de Souza      : ESD, SOC TD-DFT                               
  Georgi L. Stoychev     : AutoAux, RI-MP2 NMR, DLPNO-MP2 response, X2C  
  Van Anh Tran           : RI-MP2 g-tensors                              
  Willem Van den Heuvel  : Paramagnetic NMR                              
  Zikuan Wang            : NOTCH, Electric field optimization            
  Frank Wennmohs         : Technical directorship and infrastructure     
  Hang Xu                : AUTO-CI-Response properties                   
                                                                         
[FACCTs GmbH]                                                            
  Markus Bursch, Miquel Garcia-Rates, Christoph Riplinger, Bernardo de Souza, Georgi L. Stoychev 
                                                                 
  APM, Basis sets (HGBS, AHGBS, def-TZVP (Ac-Lr), def2-XVPD (La-Lu)), CI-OPT, improved COSX, DLPNO-Multilevel,           
  DOCKER, DRACO, updates on ESD, GOAT, IRC, LR-CPCM, MBIS, meta-GGA TD-DFT gradient, ML-optimized integration grids, 
  MM, NACMEs, nearIR, NEB, NEB-TS, NL-DFT gradient (VV10), 2- and 3-layer-ONIOM, interface openCOSMO-RS, QMMM,   
  Crystal-QMMM, SF, symmetry and pop. for TD-DFT, r2SCAN hybrids, SOLVATOR                                   
                                                                         
[Other institutions]                                                     
  V. Asgeirsson          : NEB                                           
  Christoph Bannwarth    : sTDA-DFT, sTD-DFT, PBEh-3c, B97-3c, D3        
  Sebastian Ehlert       : rSCAN, r2SCAN, r2SCAN-3c, D4, dhf basis sets  
  Marvin Friede          : D4 for Fr, Ra, Ac-Lr                          
  Lars Goerigk           : TD-DFT with DH, B97 family of functionals     
  Stefan Grimme          : VdW corrections, initial TS optimization, DFT functionals, gCP, sTDA/sTD-DF 
  Waldemar Hujo          : DFT-NL                                        
  H. Jonsson             : NEB                                           
  Holger Kruse           : gCP                                           
  Marcel Mueller         : wB97X-3c, vDZP basis set                      
  Hagen Neugebauer       : wr2SCAN                                       
  Tobias Risthaus        : range-separated hybrid DFT                    
  Lukas Wittmann         : regularized MP2, r2SCAN double-hybrids, wr2SCAN        
                                                                         
We gratefully acknowledge several colleagues who have allowed us to      
interface, adapt or use parts of their codes:                            
  Ed Valeev, F. Pavosevic, A. Kumar             : LibInt (2-el integral package), F12 methods 
  Garnet Chan, S. Sharma, J. Yang, R. Olivares  : DMRG                   
  Ulf Ekstrom                                   : XCFun DFT Library      
  Mihaly Kallay                                 : mrcc  (arbitrary order and MRCC methods)
  Frank Weinhold                                : gennbo (NPA and NBO analysis)           
  Simon Mueller                                 : openCOSMO-RS                            
  Christopher J. Cramer and Donald G. Truhlar   : smd solvation model                     
  S Lehtola, MJT Oliveira, MAL Marques          : LibXC Library                           
  Liviu Ungur et al                             : ANISO software                          


 Your calculation uses the libint2 library for the computation of 2-el integrals
 For citations please refer to: http://libint.valeyev.net

 Your ORCA version has been built with support for libXC version: 6.2.2
 For citations please refer to: https://libxc.gitlab.io

 This ORCA versions uses:
   CBLAS   interface :  Fast vector & matrix operations
   LAPACKE interface :  Fast linear algebra routines
   SCALAPACK package :  Parallel linear algebra routines
   Shared memory     :  Shared parallel matrices
   BLAS/LAPACK       :  OpenBLAS 0.3.27  USE64BITINT DYNAMIC_ARCH NO_AFFINITY SkylakeX SINGLE_THREADED
        Core in use  :  SkylakeX
   Copyright (c) 2011-2014, The OpenBLAS Project


Your calculation utilizes the atom-pairwise dispersion correction
with the Becke-Johnson damping scheme (D3BJ)


Warning: RI is on but no J-basis has been assigned. Assigning Def2/J (nothing to worry about!)
================================================================================

----- Orbital basis set information -----
Your calculation utilizes the basis: def2-SVP
   F. Weigend and R. Ahlrichs, Phys. Chem. Chem. Phys. 7, 3297 (2005).

----- AuxJ basis set information -----
Your calculation utilizes the auxiliary basis: def2/J
   F. Weigend, Phys. Chem. Chem. Phys. 8, 1057 (2006).

================================================================================
                                        WARNINGS
                       Please study these warnings very carefully!
================================================================================


WARNING: Geometry Optimization
  ===> : Switching off AutoStart
         For restart on a previous wavefunction, please use MOREAD

================================================================================
                                       INPUT FILE
================================================================================
NAME = zinc_hydrate_1.inp
|  1> ! B3LYP def2-SVP Opt TightSCF ALLPOP KEEPDENS D3BJ CPCM(WATER)
|  2> 
|  3> %pal
|  4> nprocs 30
|  5> end
|  6> 
|  7> * xyz 2 1
|  8>   Zn          1.01994068969050      0.90929699283428      1.13120960091320
|  9>   H          -1.02292091017138     -0.10453522622732     -0.26831504389550
| 10>   O          -0.87715386957812      0.70795536416758      0.24746376472793
| 11>   H          -1.60740138721062      0.73177531271219      0.88930533067741
| 12>   H           3.64946292186013      1.00549064949914      1.51087076393920
| 13>   O           2.88143122888440      1.03260248492820      2.10548545789577
| 14>   H           3.02972867034097      1.79762621501937      2.68618213047432
| 15>   H           0.68964964412255      2.99490784323767     -0.50824961502807
| 16>   O           1.16312029577888      2.85735488073469      0.32932147923052
| 17>   H           2.06130184891403      3.19671342244832      0.17636668041258
| 18>   H           0.20556472777393     -1.59963064853562      1.69549033520687
| 19>   O           0.80800228745371     -0.94440795293062      2.08408102630014
| 20>   H           1.63151067349032     -1.42551489525951      2.26842989440721
| 21>   H           0.20246958330257      1.48160787022712      3.63044074122844
| 22>   O           0.01740936673183      1.82716204422979      2.74234015267150
| 23>   H           0.18951048360265      2.78290537547324      2.79373794851503
| 24>   H           1.86038716354510     -0.92588934974872     -0.62245326148697
| 25>   O           2.03699093549326      0.01869645909013     -0.47524069059450
| 26>   H           1.95366564597525      0.43534315810004     -1.34945669559514
| 27> *
| 28> 
| 29>                          ****END OF INPUT****
================================================================================

                       *****************************
                       * Geometry Optimization Run *
                       *****************************

Geometry optimization settings:
Update method            Update   .... BFGS
Choice of coordinates    CoordSys .... (2022) Redundant Internals
Initial Hessian          InHess   .... Almloef's Model
Max. no of cycles        MaxIter  .... 57

Convergence Tolerances:
Energy Change            TolE     ....  5.0000e-06 Eh
Max. Gradient            TolMAXG  ....  3.0000e-04 Eh/bohr
RMS Gradient             TolRMSG  ....  1.0000e-04 Eh/bohr
Max. Displacement        TolMAXD  ....  4.0000e-03 bohr
RMS Displacement         TolRMSD  ....  2.0000e-03 bohr
Strict Convergence                .... False

------------------------------------------------------------------------------
                        ORCA OPTIMIZATION COORDINATE SETUP
------------------------------------------------------------------------------

The optimization will be done in redundant internal coordinates (2022)
Making redundant internal coordinates   ...  (2022 redundants) done
Evaluating the initial hessian          ...  (Almloef) done
Evaluating the coordinates              ...  done
Calculating the B-matrix                .... done
Calculating the G-matrix                .... done
Diagonalizing the G-matrix              .... done
The first mode is                       ....   52
The number of degrees of freedom        ....   51

    -----------------------------------------------------------------
                    Redundant Internal Coordinates


    -----------------------------------------------------------------
         Definition                    Initial Value    Approx d2E/dq
    -----------------------------------------------------------------
      1. B(O   2,H   1)                  0.9734         0.495065   
      2. B(O   2,Zn  0)                  2.1025         0.413285   
      3. B(H   3,O   2)                  0.9725         0.496588   
      4. B(O   5,H   4)                  0.9717         0.498106   
      5. B(O   5,Zn  0)                  2.1047         0.410031   
      6. B(H   6,O   5)                  0.9718         0.497835   
      7. B(O   8,Zn  0)                  2.1115         0.399839   
      8. B(O   8,H   7)                  0.9719         0.497686   
      9. B(H   9,O   8)                  0.9723         0.497058   
     10. B(O  11,H  10)                  0.9712         0.498977   
     11. B(O  11,Zn  0)                  2.0950         0.424803   
     12. B(H  12,O  11)                  0.9714         0.498634   
     13. B(O  14,H  13)                  0.9708         0.499802   
     14. B(O  14,Zn  0)                  2.1079         0.405154   
     15. B(H  15,O  14)                  0.9725         0.496667   
     16. B(O  17,H  16)                  0.9722         0.497233   
     17. B(O  17,Zn  0)                  2.0996         0.417742   
     18. B(H  18,O  17)                  0.9720         0.497526   
     19. A(O  11,Zn  0,O  17)           91.2425         0.470904   
     20. A(O   8,Zn  0,O  17)           93.8948         0.465704   
     21. A(O  11,Zn  0,O  14)           89.4003         0.468268   
     22. A(O   5,Zn  0,O  14)           92.3685         0.465242   
     23. A(O   2,Zn  0,O  14)           86.2059         0.465915   
     24. A(O   5,Zn  0,O   8)           93.5417         0.464119   
     25. A(O   2,Zn  0,O  17)           94.2928         0.468535   
     26. A(O   5,Zn  0,O  17)           87.1685         0.467856   
     27. A(O   8,Zn  0,O  11)          174.8184         0.467136   
     28. A(O   8,Zn  0,O  14)           85.4567         0.463104   
     29. A(O   2,Zn  0,O  11)           90.8690         0.469977   
     30. A(O   5,Zn  0,O  11)           86.0301         0.469297   
     31. A(O   2,Zn  0,O   8)           89.4216         0.464791   
     32. A(H   1,O   2,H   3)          104.9346         0.316879   
     33. A(Zn  0,O   2,H   1)          115.9633         0.382629   
     34. A(Zn  0,O   2,H   3)          113.4388         0.382834   
     35. A(H   4,O   5,H   6)          105.4859         0.317325   
     36. A(Zn  0,O   5,H   6)          117.2381         0.382475   
     37. A(Zn  0,O   5,H   4)          114.4676         0.382511   
     38. A(H   7,O   8,H   9)          105.3707         0.317200   
     39. A(Zn  0,O   8,H   9)          116.3856         0.380705   
     40. A(Zn  0,O   8,H   7)          115.1390         0.380788   
     41. A(Zn  0,O  11,H  10)          118.5357         0.384989   
     42. A(H  10,O  11,H  12)          105.5249         0.317498   
     43. A(Zn  0,O  11,H  12)          116.0260         0.384943   
     44. A(H  13,O  14,H  15)          105.5303         0.317379   
     45. A(Zn  0,O  14,H  15)          112.5925         0.381526   
     46. A(Zn  0,O  14,H  13)          116.9734         0.381943   
     47. A(H  16,O  17,H  18)          105.3504         0.317202   
     48. A(Zn  0,O  17,H  18)          117.6975         0.383674   
     49. A(Zn  0,O  17,H  16)          116.1046         0.383634   
     50. D(H   1,O   2,Zn  0,O  11)    -54.7090         0.002399   
     51. D(H   1,O   2,Zn  0,O  17)     36.6024         0.002399   
     52. D(H   3,O   2,Zn  0,O  11)     66.8608         0.002399   
     53. D(H   3,O   2,Zn  0,O  14)    -22.4804         0.002399   
     54. D(H   1,O   2,Zn  0,O   8)    130.4648         0.002399   
     55. D(H   1,O   2,Zn  0,O  14)   -144.0502         0.002399   
     56. D(H   3,O   2,Zn  0,O   8)   -107.9653         0.002399   
     57. D(H   3,O   2,Zn  0,O  17)    158.1722         0.002399   
     58. D(H   6,O   5,Zn  0,O  11)   -122.1409         0.002385   
     59. D(H   4,O   5,Zn  0,O  17)     22.0704         0.002385   
     60. D(H   6,O   5,Zn  0,O   8)     52.6841         0.002385   
     61. D(H   4,O   5,Zn  0,O  11)    113.5142         0.002385   
     62. D(H   4,O   5,Zn  0,O   8)    -71.6608         0.002385   
     63. D(H   6,O   5,Zn  0,O  14)    -32.9071         0.002385   
     64. D(H   4,O   5,O   2,H   3)    179.4118         0.001500   
     65. D(H   4,O   5,O   2,H   1)     59.1298         0.001500   
     66. D(H   6,O   5,Zn  0,O  17)    146.4154         0.002385   
     67. D(H   6,O   5,O   2,H   1)   -175.1164         0.001500   
     68. D(H   6,O   5,O   2,H   3)    -54.8344         0.001500   
     69. D(H   4,O   5,Zn  0,O  14)   -157.2520         0.002385   
     70. D(H   7,O   8,Zn  0,O  11)   -123.2462         0.002342   
     71. D(H   7,O   8,Zn  0,O  17)     64.2624         0.002342   
     72. D(H   7,O   8,Zn  0,O  14)   -116.2409         0.002342   
     73. D(H   9,O   8,Zn  0,O   5)     27.6295         0.002342   
     74. D(H   7,O   8,Zn  0,O   5)    151.6606         0.002342   
     75. D(H   9,O   8,Zn  0,O   2)   -154.0323         0.002342   
     76. D(H   7,O   8,Zn  0,O   2)    -30.0011         0.002342   
     77. D(H  10,O  11,Zn  0,O  14)    110.6336         0.002450   
     78. D(H  10,O  11,Zn  0,O   8)    117.6172         0.002450   
     79. D(H  10,O  11,Zn  0,O   5)   -156.9504         0.002450   
     80. D(H  10,O  11,Zn  0,O   2)     24.4375         0.002450   
     81. D(H  12,O  11,Zn  0,O   5)    -29.7527         0.002450   
     82. D(H  12,O  11,Zn  0,O   2)    151.6351         0.002450   
     83. D(H  10,O  11,Zn  0,O  17)    -69.8757         0.002450   
     84. D(H  15,O  14,Zn  0,O  11)    159.9900         0.002365   
     85. D(H  15,O  14,Zn  0,O   8)    -19.3789         0.002365   
     86. D(H  15,O  14,Zn  0,O   5)     73.9884         0.002365   
     87. D(H  15,O  14,Zn  0,O   2)   -109.0993         0.002365   
     88. D(H  13,O  14,Zn  0,O  11)     37.4984         0.002365   
     89. D(H  13,O  14,Zn  0,O   8)   -141.8705         0.002365   
     90. D(H  13,O  14,Zn  0,O   5)    -48.5032         0.002365   
     91. D(H  13,O  14,Zn  0,O   2)    128.4091         0.002365   
     92. D(H  18,O  17,O  14,H  15)    -49.4838         0.001500   
     93. D(H  18,O  17,O  14,H  13)   -171.7198         0.001500   
     94. D(H  16,O  17,O  14,H  15)   -175.9019         0.001500   
     95. D(H  16,O  17,O  14,H  13)     61.8622         0.001500   
     96. D(H  18,O  17,Zn  0,O  11)    150.3883         0.002419   
     97. D(H  18,O  17,Zn  0,O   8)    -30.2881         0.002419   
     98. D(H  18,O  17,Zn  0,O   5)   -123.6490         0.002419   
     99. D(H  18,O  17,Zn  0,O   2)     59.4234         0.002419   
    100. D(H  16,O  17,Zn  0,O  11)     24.2193         0.002419   
    101. D(H  16,O  17,Zn  0,O   8)   -156.4571         0.002419   
    102. D(H  16,O  17,Zn  0,O   5)    110.1820         0.002419   
    103. D(H  16,O  17,Zn  0,O   2)    -66.7456         0.002419   
    -----------------------------------------------------------------

Number of atoms                         .... 19
Number of degrees of freedom            .... 103


         *************************************************************
         *                GEOMETRY OPTIMIZATION CYCLE   1            *
         *************************************************************
---------------------------------
CARTESIAN COORDINATES (ANGSTROEM)
---------------------------------
  Zn     1.019941    0.909297    1.131210
  H     -1.022921   -0.104535   -0.268315
  O     -0.877154    0.707955    0.247464
  H     -1.607401    0.731775    0.889305
  H      3.649463    1.005491    1.510871
  O      2.881431    1.032602    2.105485
  H      3.029729    1.797626    2.686182
  H      0.689650    2.994908   -0.508250
  O      1.163120    2.857355    0.329321
  H      2.061302    3.196713    0.176367
  H      0.205565   -1.599631    1.695490
  O      0.808002   -0.944408    2.084081
  H      1.631511   -1.425515    2.268430
  H      0.202470    1.481608    3.630441
  O      0.017409    1.827162    2.742340
  H      0.189510    2.782905    2.793738
  H      1.860387   -0.925889   -0.622453
  O      2.036991    0.018696   -0.475241
  H      1.953666    0.435343   -1.349457

----------------------------
CARTESIAN COORDINATES (A.U.)
----------------------------
  NO LB      ZA    FRAG     MASS         X           Y           Z
   0 Zn   30.0000    0    65.380    1.927409    1.718322    2.137676
   1 H     1.0000    0     1.008   -1.933040   -0.197543   -0.507042
   2 O     8.0000    0    15.999   -1.657581    1.337842    0.467639
   3 H     1.0000    0     1.008   -3.037548    1.382855    1.680544
   4 H     1.0000    0     1.008    6.896485    1.900102    2.855132
   5 O     8.0000    0    15.999    5.445116    1.951336    3.978791
   6 H     1.0000    0     1.008    5.725357    3.397021    5.076149
   7 H     1.0000    0     1.008    1.303249    5.659556   -0.960453
   8 O     8.0000    0    15.999    2.197979    5.399618    0.622327
   9 H     1.0000    0     1.008    3.895296    6.040913    0.333285
  10 H     1.0000    0     1.008    0.388461   -3.022864    3.204012
  11 O     8.0000    0    15.999    1.526903   -1.784672    3.938342
  12 H     1.0000    0     1.008    3.083108   -2.693833    4.286711
  13 H     1.0000    0     1.008    0.382612    2.799833    6.860539
  14 O     8.0000    0    15.999    0.032899    3.452836    5.182272
  15 H     1.0000    0     1.008    0.358123    5.258929    5.279400
  16 H     1.0000    0     1.008    3.515622   -1.749677   -1.176266
  17 O     8.0000    0    15.999    3.849355    0.035331   -0.898075
  18 H     1.0000    0     1.008    3.691893    0.822679   -2.550104

--------------------------------
INTERNAL COORDINATES (ANGSTROEM)
--------------------------------
 Zn     0   0   0     0.000000000000     0.00000000     0.00000000
 H      1   0   0     2.675781851352     0.00000000     0.00000000
 O      2   1   0     0.973353362879    44.94678080     0.00000000
 H      3   2   1     0.972517055243   104.93464771   234.00112637
 H      1   2   3     2.658530230742   147.51544935   205.29959090
 O      5   1   2     0.971686352330    46.10120613   216.25154630
 H      6   5   1     0.971834381100   105.48594517   229.61922650
 H      1   2   3     2.673329630786    83.13731778   304.01081565
 O      8   1   2     0.971915949767    45.64543775   164.93320524
 H      9   8   1     0.972259992341   105.37067799   129.65163606
 H      1   2   3     2.697468973700    61.73901148   127.13396066
 O     11   1   2     0.971210852160    43.02455241   189.74298964
 H     12  11   1     0.971398196932   105.52490123   227.97773874
 H      1   2   3     2.691088077875   109.53645113    54.41006259
 O     14   1   2     0.970761364251    44.27348802   292.30808116
 H     15  14   1     0.972474083491   105.53034899   233.92561701
 H      1   2   3     2.673872215043    68.70862522   200.54202429
 O     17   1   2     0.972163969480    44.83946147   120.00627708
 H     18  17   1     0.972003703217   105.35038178   227.83539342

---------------------------
INTERNAL COORDINATES (A.U.)
---------------------------
 Zn     0   0   0     0.000000000000     0.00000000     0.00000000
 H      1   0   0     5.056494893172     0.00000000     0.00000000
 O      2   1   0     1.839371287373    44.94678080     0.00000000
 H      3   2   1     1.837790894976   104.93464771   234.00112637
 H      1   2   3     5.023894054852   147.51544935   205.29959090
 O      5   1   2     1.836221093973    46.10120613   216.25154630
 H      6   5   1     1.836500827809   105.48594517   229.61922650
 H      1   2   3     5.051860867882    83.13731778   304.01081565
 O      8   1   2     1.836654970249    45.64543775   164.93320524
 H      9   8   1     1.837305116494   105.37067799   129.65163606
 H      1   2   3     5.097477615042    61.73901148   127.13396066
 O     11   1   2     1.835322528874    43.02455241   189.74298964
 H     12  11   1     1.835676559186   105.52490123   227.97773874
 H      1   2   3     5.085419469445   109.53645113    54.41006259
 O     14   1   2     1.834473119827    44.27348802   292.30808116
 H     15  14   1     1.837709690134   105.53034899   233.92561701
 H      1   2   3     5.052886203533    68.70862522   200.54202429
 O     17   1   2     1.837123659583    44.83946147   120.00627708
 H     18  17   1     1.836820800238   105.35038178   227.83539342

---------------------
BASIS SET INFORMATION
---------------------
There are 3 groups of distinct atoms

 Group   1 Type Zn  : 14s9p5d1f contracted to 5s3p2d1f pattern {63311/531/41/1}
 Group   2 Type H   : 4s1p contracted to 2s1p pattern {31/1}
 Group   3 Type O   : 7s4p1d contracted to 3s2p1d pattern {511/31/1}

Atom   0Zn   basis set group =>   1
Atom   1H    basis set group =>   2
Atom   2O    basis set group =>   3
Atom   3H    basis set group =>   2
Atom   4H    basis set group =>   2
Atom   5O    basis set group =>   3
Atom   6H    basis set group =>   2
Atom   7H    basis set group =>   2
Atom   8O    basis set group =>   3
Atom   9H    basis set group =>   2
Atom  10H    basis set group =>   2
Atom  11O    basis set group =>   3
Atom  12H    basis set group =>   2
Atom  13H    basis set group =>   2
Atom  14O    basis set group =>   3
Atom  15H    basis set group =>   2
Atom  16H    basis set group =>   2
Atom  17O    basis set group =>   3
Atom  18H    basis set group =>   2
---------------------------------
AUXILIARY/J BASIS SET INFORMATION
---------------------------------
There are 3 groups of distinct atoms

 Group   1 Type Zn  : 19s5p5d3f3g contracted to 8s5p5d2f3g pattern {121111111/11111/11111/21/111}
 Group   2 Type H   : 5s2p1d contracted to 3s1p1d pattern {311/2/1}
 Group   3 Type O   : 12s5p4d2f1g contracted to 6s4p3d1f1g pattern {711111/2111/211/2/1}

Atom   0Zn   basis set group =>   1
Atom   1H    basis set group =>   2
Atom   2O    basis set group =>   3
Atom   3H    basis set group =>   2
Atom   4H    basis set group =>   2
Atom   5O    basis set group =>   3
Atom   6H    basis set group =>   2
Atom   7H    basis set group =>   2
Atom   8O    basis set group =>   3
Atom   9H    basis set group =>   2
Atom  10H    basis set group =>   2
Atom  11O    basis set group =>   3
Atom  12H    basis set group =>   2
Atom  13H    basis set group =>   2
Atom  14O    basis set group =>   3
Atom  15H    basis set group =>   2
Atom  16H    basis set group =>   2
Atom  17O    basis set group =>   3
Atom  18H    basis set group =>   2
--------------------------------------------------------------------------
By default, for Open MPI 4.0 and later, infiniband ports on a device
are not used by default.  The intent is to use UCX for these devices.
You can override this policy by setting the btl_openib_allow_ib MCA parameter
to true.

  Local host:              psid00
  Local adapter:           mlx5_0
  Local port:              1

--------------------------------------------------------------------------
--------------------------------------------------------------------------
WARNING: There was an error initializing an OpenFabrics device.

  Local host:   psid00
  Local device: mlx5_0
--------------------------------------------------------------------------


           ************************************************************
           *        Program running with 30 parallel MPI-processes    *
           *              working on a common directory               *
           ************************************************************
------------------------------------------------------------------------------
                             ORCA STARTUP CALCULATIONS
                           -- RI-GTO INTEGRALS CHOSEN --
------------------------------------------------------------------------------
------------------------------------------------------------------------------
                   ___                                                        
                  /   \      - P O W E R E D   B Y -                         
                 /     \                                                     
                 |  |  |   _    _      __       _____    __    __             
                 |  |  |  | |  | |    /  \     |  _  \  |  |  /  |          
                  \  \/   | |  | |   /    \    | | | |  |  | /  /          
                 / \  \   | |__| |  /  /\  \   | |_| |  |  |/  /          
                |  |  |   |  __  | /  /__\  \  |    /   |      \           
                |  |  |   | |  | | |   __   |  |    \   |  |\   \          
                \     /   | |  | | |  |  |  |  | |\  \  |  | \   \       
                 \___/    |_|  |_| |__|  |__|  |_| \__\ |__|  \__/        
                                                                              
                      - O R C A' S   B I G   F R I E N D -                    
                                      &                                       
                       - I N T E G R A L  F E E D E R -                       
                                                                              
 v1 FN, 2020, v2 2021, v3 2022-2024                                           
------------------------------------------------------------------------------


----------------------
SHARK INTEGRAL PACKAGE
----------------------

Number of atoms                             ...     19
Number of basis functions                   ...    175
Number of shells                            ...     83
Maximum angular momentum                    ...      3
Integral batch strategy                     ... SHARK/LIBINT Hybrid
RI-J (if used) integral strategy            ... SPLIT-RIJ (Revised 2003 algorithm where possible)
Printlevel                                  ...      1
Contraction scheme used                     ... SEGMENTED contraction
Prescreening option                         ... SCHWARTZ
   Thresh                                   ... 2.500e-11
   Tcut                                     ... 2.500e-12
   Tpresel                                  ... 2.500e-12 
Coulomb Range Separation                    ... NOT USED
Exchange Range Separation                   ... NOT USED
Multipole approximations                    ... NOT USED
Finite Nucleus Model                        ... NOT USED
CABS basis                                  ... NOT available
Auxiliary Coulomb fitting basis             ... AVAILABLE
   # of basis functions in Aux-J            ...    515
   # of shells in Aux-J                     ...    173
   Maximum angular momentum in Aux-J        ...      4
Auxiliary J/K fitting basis                 ... NOT available
Auxiliary Correlation fitting basis         ... NOT available
Auxiliary 'external' fitting basis          ... NOT available

Checking pre-screening integrals            ... done (  0.0 sec) Dimension = 83
Check shell pair data                       ... done (  0.0 sec)
Shell pair information
Shell pair cut-off parameter TPreSel        ...   2.5e-12
Total number of shell pairs                 ...      3486
Shell pairs after pre-screening             ...      3261
Total number of primitive shell pairs       ...     13195
Primitive shell pairs kept                  ...      8623
          la=0 lb=0:   1083 shell pairs
          la=1 lb=0:   1173 shell pairs
          la=1 lb=1:    351 shell pairs
          la=2 lb=0:    340 shell pairs
          la=2 lb=1:    198 shell pairs
          la=2 lb=2:     33 shell pairs
          la=3 lb=0:     47 shell pairs
          la=3 lb=1:     27 shell pairs
          la=3 lb=2:      8 shell pairs
          la=3 lb=3:      1 shell pairs

Calculating one electron integrals          ... done (  0.0 sec)
Calculating RI/J V-Matrix + Cholesky decomp.... done (  0.0 sec)
Calculating Nuclear repulsion               ... done (  0.0 sec) ENN=    728.535391672681 Eh

Diagonalization of the overlap matrix:
Smallest eigenvalue                        ... 1.388e-02
Time for diagonalization                   ...    0.003 sec
Threshold for overlap eigenvalues          ... 1.000e-07
Number of eigenvalues below threshold      ... 0
Time for construction of square roots      ...    0.001 sec
Total time needed                          ...    0.005 sec

-------------------
DFT GRID GENERATION
-------------------

General Integration Accuracy     IntAcc      ... 4.388
Radial Grid Type                 RadialGrid  ... OptM3 with GC (2021)
Angular Grid (max. ang.)         AngularGrid ... 4 (Lebedev-302)
Angular grid pruning method      GridPruning ... 4 (adaptive)
Weight generation scheme         WeightScheme... mBecke (2022)
Basis function cutoff            BFCut       ... 1.0000e-11
Integration weight cutoff        WCut        ... 1.0000e-14
Partially contracted basis set               ... off
Rotationally invariant grid construction     ... off
Angular grids for H and He will be reduced by one unit
Core-polarized basis detected: some atoms will have their core
                               angular grid increased.

Total number of grid points                  ...    86447
Total number of batches                      ...     1361
Average number of points per batch           ...       63
Average number of grid points per atom       ...     4550

--------------------
COSX GRID GENERATION
--------------------

GRIDX 1
-------
General Integration Accuracy     IntAcc      ... 3.816
Radial Grid Type                 RadialGrid  ... OptM3 with GC (2021)
Angular Grid (max. ang.)         AngularGrid ... 1 (Lebedev-50)
Angular grid pruning method      GridPruning ... 4 (adaptive)
Weight generation scheme         WeightScheme... mBecke (2022)
Basis function cutoff            BFCut       ... 1.0000e-11
Integration weight cutoff        WCut        ... 1.0000e-14
Partially contracted basis set               ... on
Rotationally invariant grid construction     ... off
Angular grids for H and He will be reduced by one unit
Core-polarized basis detected: some atoms will have their core
                               angular grid increased.

Total number of grid points                  ...    15504
Total number of batches                      ...      136
Average number of points per batch           ...      114
Average number of grid points per atom       ...      816
UseSFitting                                  ... on

GRIDX 2
-------
General Integration Accuracy     IntAcc      ... 4.020
Radial Grid Type                 RadialGrid  ... OptM3 with GC (2021)
Angular Grid (max. ang.)         AngularGrid ... 2 (Lebedev-110)
Angular grid pruning method      GridPruning ... 4 (adaptive)
Weight generation scheme         WeightScheme... mBecke (2022)
Basis function cutoff            BFCut       ... 1.0000e-11
Integration weight cutoff        WCut        ... 1.0000e-14
Partially contracted basis set               ... on
Rotationally invariant grid construction     ... off
Angular grids for H and He will be reduced by one unit
Core-polarized basis detected: some atoms will have their core
                               angular grid increased.

Total number of grid points                  ...    25997
Total number of batches                      ...      216
Average number of points per batch           ...      120
Average number of grid points per atom       ...     1368
UseSFitting                                  ... on

GRIDX 3
-------
General Integration Accuracy     IntAcc      ... 4.338
Radial Grid Type                 RadialGrid  ... OptM3 with GC (2021)
Angular Grid (max. ang.)         AngularGrid ... 3 (Lebedev-194)
Angular grid pruning method      GridPruning ... 4 (adaptive)
Weight generation scheme         WeightScheme... mBecke (2022)
Basis function cutoff            BFCut       ... 1.0000e-11
Integration weight cutoff        WCut        ... 1.0000e-14
Partially contracted basis set               ... on
Rotationally invariant grid construction     ... off
Angular grids for H and He will be reduced by one unit
Core-polarized basis detected: some atoms will have their core
                               angular grid increased.

Total number of grid points                  ...    49927
Total number of batches                      ...      399
Average number of points per batch           ...      125
Average number of grid points per atom       ...     2628
UseSFitting                                  ... on
Initializing property integral containers    ... done (  0.0 sec)

SHARK setup successfully completed in   0.6 seconds

Maximum memory used throughout the entire STARTUP-calculation: 24.7 MB
[psid00:123547] 29 more processes have sent help message help-mpi-btl-openib.txt / ib port not selected
[psid00:123547] Set MCA parameter "orte_base_help_aggregate" to 0 to see all help / error messages
[psid00:123547] 29 more processes have sent help message help-mpi-btl-openib.txt / error in device init
--------------------------------------------------------------------------
By default, for Open MPI 4.0 and later, infiniband ports on a device
are not used by default.  The intent is to use UCX for these devices.
You can override this policy by setting the btl_openib_allow_ib MCA parameter
to true.

  Local host:              psid00
  Local adapter:           mlx5_0
  Local port:              1

--------------------------------------------------------------------------
--------------------------------------------------------------------------
WARNING: There was an error initializing an OpenFabrics device.

  Local host:   psid00
  Local device: mlx5_0
--------------------------------------------------------------------------


           ************************************************************
           *        Program running with 30 parallel MPI-processes    *
           *              working on a common directory               *
           ************************************************************
-------------------------------------------------------------------------------
                                 ORCA GUESS
                   Start orbitals & Density for SCF / CASSCF
-------------------------------------------------------------------------------

------------
SCF SETTINGS
------------
Hamiltonian:
 Density Functional     Method          .... DFT(GTOs)
 Exchange Functional    Exchange        .... B88
   X-Alpha parameter    XAlpha          ....  0.666667
   Becke's b parameter  XBeta           ....  0.004200
 Correlation Functional Correlation     .... LYP
 LDA part of GGA corr.  LDAOpt          .... VWN-5
 Gradients option       PostSCFGGA      .... off
 Hybrid DFT is turned on
   Fraction HF Exchange ScalHFX         ....  0.200000
   Scaling of DF-GGA-X  ScalDFX         ....  0.720000
   Scaling of DF-GGA-C  ScalDFC         ....  0.810000
   Scaling of DF-LDA-C  ScalLDAC        ....  1.000000
   Perturbative correction              ....  0.000000
   NL short-range parameter             ....  4.800000
 RI-approximation to the Coulomb term is turned on
   Number of AuxJ basis functions       .... 515
   RIJ-COSX (HFX calculated with COS-X)).... on


General Settings:
 Integral files         IntName         .... zinc_hydrate_1
 Hartree-Fock type      HFTyp           .... RHF
 Total Charge           Charge          ....    2
 Multiplicity           Mult            ....    1
 Number of Electrons    NEL             ....   88
 Basis Dimension        Dim             ....  175
 Nuclear Repulsion      ENuc            ....    728.5353916727 Eh

Convergence Acceleration:
 AO-DIIS                CNVDIIS         .... on
   Start iteration      DIISMaxIt       ....    12
   Startup error        DIISStart       ....  0.200000
   # of expansion vecs  DIISMaxEq       ....     5
   Bias factor          DIISBfac        ....   1.050
   Max. coefficient     DIISMaxC        ....  10.000
 MO-DIIS                CNVKDIIS        .... off
 Trust-Rad. Augm. Hess. CNVTRAH         .... auto
   Auto Start mean grad. ratio tolernc. ....  1.125000
   Auto Start start iteration           ....    50
   Auto Start num. interpolation iter.  ....    10
   Max. Number of Micro iterations      ....    24
   Max. Number of Macro iterations      .... Maxiter - #DIIS iter
   Number of Davidson start vectors     ....     2
   Converg. threshold    (grad. norm)   ....   1.000e-05
   Grad. Scal. Fac. for Micro threshold ....   0.100
   Minimum threshold for Micro iter.    ....   1.000e-02
   NR start threshold (gradient norm)   ....   1.000e-04
   Initial trust radius                 ....   0.400
   Minimum AH scaling param. (alpha)    ....   1.000
   Maximum AH scaling param. (alpha)    .... 1000.000
   Quad. conv. algorithm                .... NR
   White noise on init. David. guess    .... on
   Maximum white noise                  ....   0.010
   Pseudo random numbers                .... off
   Inactive MOs                         .... canonical
   Orbital update algorithm             .... Taylor
   Preconditioner                       .... Diag
   Full preconditioner red. dimension   ....   250
 SOSCF                  CNVSOSCF        .... on
   Start iteration      SOSCFMaxIt      ....   150
   Startup grad/error   SOSCFStart      ....  0.003300
   Hessian update       SOSCFHessUp     .... L-BFGS
 Level Shifting         CNVShift        .... on
   Level shift para.    LevelShift      ....    0.2500
   Turn off err/grad.   ShiftErr        ....    0.0010
 Zerner damping         CNVZerner       .... off
 Static damping         CNVDamp         .... on
   Fraction old density DampFac         ....    0.7000
   Max. Damping (<1)    DampMax         ....    0.9800
   Min. Damping (>=0)   DampMin         ....    0.0000
   Turn off err/grad.   DampErr         ....    0.1000

SCF Procedure:
 Maximum # iterations   MaxIter         ....   125
 SCF integral mode      SCFMode         .... Direct
   Integral package                     .... SHARK and LIBINT hybrid scheme
 Reset frequency        DirectResetFreq ....    20
 Integral Threshold     Thresh          ....  2.500e-11 Eh
 Primitive CutOff       TCut            ....  2.500e-12 Eh

Convergence Tolerance:
 Convergence Check Mode ConvCheckMode   .... Total+1el-Energy
 Convergence forced     ConvForced      .... 0
 Energy Change          TolE            ....  1.000e-08 Eh
 1-El. energy change                    ....  1.000e-05 Eh
 Orbital Gradient       TolG            ....  1.000e-05
 Orbital Rotation angle TolX            ....  1.000e-05
 DIIS Error             TolErr          ....  5.000e-07

------------------------------
INITIAL GUESS: MODEL POTENTIAL
------------------------------
Loading Hartree-Fock densities                     ... done
Calculating cut-offs                               ... done
Initializing the effective Hamiltonian             ... done
Setting up the integral package (SHARK)            ... done
Starting the Coulomb interaction                   ... done (   0.0 sec)
Making the grid                                    ... done (   0.1 sec)
Mapping shells                                     ... done
Starting the XC term evaluation                    ... done (   0.0 sec)
  promolecular density results
     # of electrons  =     89.993108963
     EX              =   -122.748480823
     EC              =     -3.521400436
     EX+EC           =   -126.269881259
Transforming the Hamiltonian                       ... done (   0.0 sec)
Diagonalizing the Hamiltonian                      ... done (   0.0 sec)
Back transforming the eigenvectors                 ... done (   0.0 sec)
Now organizing SCF variables                       ... done
                      ------------------
                      INITIAL GUESS DONE (   0.1 sec)
                      ------------------
             **** ENERGY FILE WAS UPDATED (zinc_hydrate_1.en.tmp) ****
Finished Guess after   1.1 sec
Maximum memory used throughout the entire GUESS-calculation: 14.2 MB
[psid00:123642] 29 more processes have sent help message help-mpi-btl-openib.txt / ib port not selected
[psid00:123642] Set MCA parameter "orte_base_help_aggregate" to 0 to see all help / error messages
[psid00:123642] 29 more processes have sent help message help-mpi-btl-openib.txt / error in device init
--------------------------------------------------------------------------
By default, for Open MPI 4.0 and later, infiniband ports on a device
are not used by default.  The intent is to use UCX for these devices.
You can override this policy by setting the btl_openib_allow_ib MCA parameter
to true.

  Local host:              psid00
  Local adapter:           mlx5_0
  Local port:              1

--------------------------------------------------------------------------
--------------------------------------------------------------------------
WARNING: There was an error initializing an OpenFabrics device.

  Local host:   psid00
  Local device: mlx5_0
--------------------------------------------------------------------------


           ************************************************************
           *        Program running with 30 parallel MPI-processes    *
           *              working on a common directory               *
           ************************************************************

-------------------------------------------------------------------------------------------
                                      ORCA LEAN-SCF
                              memory conserving SCF solver
-------------------------------------------------------------------------------------------

--------------------
CPCM SOLVATION MODEL
--------------------
CPCM parameters:
  Epsilon                                         ...      80.1510
  Refrac                                          ...       1.3328
  Rsolv                                           ...       1.3000
  Surface type                                    ... GAUSSIAN VDW
  Discretization scheme                           ... Constant charge density
    Threshold for H atoms                         ...       5.0000 (charges/Ang^2)
    Threshold for non-H atoms                     ...       5.0000 (charges/Ang^2)
  Epsilon function type                           ...         CPCM
Solvent:                                          ... WATER
Radii:
  Scheme                                          ... Element-dependent radii
  Radius for Zn used is    3.1521 Bohr (=   1.6680 Ang.)
  Radius for H  used is    2.4944 Bohr (=   1.3200 Ang.)
  Radius for O  used is    3.4469 Bohr (=   1.8240 Ang.)
Calculating surface                               ...        done! (  0.0s)
Cavity surface points                             ...         1577
Cavity Volume                                     ...    1057.1651
Cavity Surface-area                               ...     663.2247
Calculating surface distance matrix               ...        done! (  0.0s)
Performing Cholesky decomposition & store         ...        done! (  0.0s)
Overall time for CPCM initialization              ...                 0.1s

----------------------------------------D-I-I-S--------------------------------------------
Iteration    Energy (Eh)           Delta-E    RMSDP     MaxDP     DIISErr   Damp  Time(sec)
-------------------------------------------------------------------------------------------
               ***  Starting incremental Fock matrix formation  ***
    1    -2236.5137580645514390     0.00e+00  3.83e-03  7.58e-02  2.56e-01  0.700   0.3
    2    -2236.7185786614436438    -2.05e-01  2.08e-03  4.49e-02  1.06e-01  0.700   0.3
                               ***Turning on AO-DIIS***
    3    -2236.7854094651183914    -6.68e-02  4.74e-04  9.79e-03  2.50e-02  0.700   0.3
    4    -2236.8280931000954297    -4.27e-02  4.90e-04  1.09e-02  8.17e-03  0.000   0.2
    5    -2236.9267773245128410    -9.87e-02  2.08e-04  8.08e-03  5.99e-03  0.000   0.2
                              *** Initializing SOSCF ***
---------------------------------------S-O-S-C-F--------------------------------------
Iteration    Energy (Eh)           Delta-E    RMSDP     MaxDP     MaxGrad    Time(sec)
--------------------------------------------------------------------------------------
    6    -2236.9270828446351516    -3.06e-04  6.31e-05  2.52e-03  1.16e-03     0.2
               *** Restarting incremental Fock matrix formation ***
    7    -2236.9270949280298737    -1.21e-05  3.84e-05  1.64e-03  2.51e-04     0.3
    8    -2236.9270954947724022    -5.67e-07  1.31e-05  3.35e-04  2.85e-04     0.3
    9    -2236.9270970453426344    -1.55e-06  4.49e-06  1.40e-04  2.11e-05     0.2
   10    -2236.9270970657871658    -2.04e-08  5.85e-07  2.04e-05  2.94e-06     0.2
   11    -2236.9270970783973098    -1.26e-08  2.44e-07  4.74e-06  2.25e-06     0.2
                  *** Gradient check signals convergence ***

               *****************************************************
               *                     SUCCESS                       *
               *           SCF CONVERGED AFTER  11 CYCLES          *
               *****************************************************

Recomputing exchange energy using gridx3       ... done (    0.310 sec)
Old exchange energy                            :    -24.564630869 Eh
New exchange energy                            :    -24.564565248 Eh
Exchange energy change after final integration :      0.000065620 Eh
Total energy after final integration           :  -2236.927031458 Eh
             **** ENERGY FILE WAS UPDATED (zinc_hydrate_1.en.tmp) ****

----------------
TOTAL SCF ENERGY
----------------

Total Energy       :      -2236.92703145791211 Eh          -60869.87909 eV

Components:
Nuclear Repulsion  :        728.53539167268150 Eh           19824.45586 eV
Electronic Energy  :      -2965.13449414361321 Eh          -80685.41155 eV
One Electron Energy:      -4535.67597236708298 Eh         -123422.01786 eV
Two Electron Energy:       1570.54147822346977 Eh           42736.60631 eV
CPCM Dielectric    :         -0.32799460746548 Eh              -8.92519 eV

Virial components:
Potential Energy   :      -4467.05101509689302 Eh         -121554.63784 eV
Kinetic Energy     :       2230.12398363898046 Eh           60684.75875 eV
Virial Ratio       :          2.00305052448601

DFT components:
N(Alpha)           :       43.999997539621 electrons
N(Beta)            :       43.999997539621 electrons
N(Total)           :       87.999995079241 electrons
E(X)               :      -97.861998692566 Eh       
E(C)               :       -4.073498848190 Eh       
E(XC)              :     -101.935497540756 Eh       

CPCM Solvation Model Properties:
Surface-charge          :         -2.00435894018714
Corrected charge        :         -2.00000000000000
Outlying charge corr.   :          0.00000140485770 Eh               0.00004 eV
Free-energy (cav+disp)  :  This term is not implemented in the current solvation scheme

---------------
SCF CONVERGENCE
---------------

  Last Energy change         ...    1.2610e-08  Tolerance :   1.0000e-08
  Last MAX-Density change    ...    4.7448e-06  Tolerance :   1.0000e-07
  Last RMS-Density change    ...    2.4403e-07  Tolerance :   5.0000e-09
  Last DIIS Error            ...    1.1614e-03  Tolerance :   5.0000e-07
  Last Orbital Gradient      ...    2.2504e-06  Tolerance :   1.0000e-05
  Last Orbital Rotation      ...    2.1320e-06  Tolerance :   1.0000e-05


----------------
ORBITAL ENERGIES
----------------

  NO   OCC          E(Eh)            E(eV) 
   0   2.0000    -347.251913     -9449.2049 
   1   2.0000     -42.205878     -1148.4803 
   2   2.0000     -37.199481     -1012.2493 
   3   2.0000     -37.199338     -1012.2454 
   4   2.0000     -37.198960     -1012.2352 
   5   2.0000     -19.184153      -522.0274 
   6   2.0000     -19.183421      -522.0074 
   7   2.0000     -19.182635      -521.9860 
   8   2.0000     -19.182167      -521.9733 
   9   2.0000     -19.181412      -521.9528 
  10   2.0000     -19.180307      -521.9227 
  11   2.0000      -4.808484      -130.8455 
  12   2.0000      -3.202241       -87.1374 
  13   2.0000      -3.202158       -87.1351 
  14   2.0000      -3.202000       -87.1308 
  15   2.0000      -1.043597       -28.3977 
  16   2.0000      -1.035545       -28.1786 
  17   2.0000      -1.034894       -28.1609 
  18   2.0000      -1.034286       -28.1443 
  19   2.0000      -1.031588       -28.0709 
  20   2.0000      -1.031057       -28.0565 
  21   2.0000      -0.568816       -15.4783 
  22   2.0000      -0.566831       -15.4242 
  23   2.0000      -0.565443       -15.3865 
  24   2.0000      -0.564968       -15.3736 
  25   2.0000      -0.563855       -15.3433 
  26   2.0000      -0.562763       -15.3136 
  27   2.0000      -0.520712       -14.1693 
  28   2.0000      -0.520320       -14.1586 
  29   2.0000      -0.509546       -13.8654 
  30   2.0000      -0.482594       -13.1321 
  31   2.0000      -0.480703       -13.0806 
  32   2.0000      -0.478204       -13.0126 
  33   2.0000      -0.462402       -12.5826 
  34   2.0000      -0.454790       -12.3755 
  35   2.0000      -0.445646       -12.1267 
  36   2.0000      -0.402110       -10.9420 
  37   2.0000      -0.401661       -10.9298 
  38   2.0000      -0.374302       -10.1853 
  39   2.0000      -0.369386       -10.0515 
  40   2.0000      -0.360515        -9.8101 
  41   2.0000      -0.354871        -9.6565 
  42   2.0000      -0.338592        -9.2136 
  43   2.0000      -0.337454        -9.1826 
  44   0.0000      -0.013676        -0.3721 
  45   0.0000       0.037749         1.0272 
  46   0.0000       0.047265         1.2861 
  47   0.0000       0.053760         1.4629 
  48   0.0000       0.085160         2.3173 
  49   0.0000       0.088136         2.3983 
  50   0.0000       0.115262         3.1364 
  51   0.0000       0.116878         3.1804 
  52   0.0000       0.125292         3.4094 
  53   0.0000       0.128745         3.5033 
  54   0.0000       0.136723         3.7204 
*Only the first 10 virtual orbitals were printed.

                    ********************************
                    * MULLIKEN POPULATION ANALYSIS *
                    ********************************

-----------------------
MULLIKEN ATOMIC CHARGES
-----------------------
   0 Zn:    0.880758
   1 H :    0.232818
   2 O :   -0.277731
   3 H :    0.232687
   4 H :    0.231982
   5 O :   -0.278342
   6 H :    0.231580
   7 H :    0.235761
   8 O :   -0.278356
   9 H :    0.231456
  10 H :    0.229271
  11 O :   -0.277148
  12 H :    0.232767
  13 H :    0.233819
  14 O :   -0.276416
  15 H :    0.229845
  16 H :    0.230872
  17 O :   -0.279722
  18 H :    0.234099
Sum of atomic charges:    2.0000000

--------------------------------
MULLIKEN REDUCED ORBITAL CHARGES
--------------------------------
  0 Zns       :     6.513140  s :     6.513140
      pz      :     4.200483  p :    12.611576
      px      :     4.204168
      py      :     4.206925
      dz2     :     1.996334  d :     9.994420
      dxz     :     2.000958
      dyz     :     2.000436
      dx2y2   :     2.002076
      dxy     :     1.994617
      f0      :     0.000013  f :     0.000106
      f+1     :     0.000012
      f-1     :     0.000014
      f+2     :     0.000027
      f-2     :     0.000014
      f+3     :     0.000011
      f-3     :     0.000016

  1 H s       :     0.700192  s :     0.700192
      pz      :     0.022173  p :     0.066990
      px      :     0.013993
      py      :     0.030823

  2 O s       :     3.658894  s :     3.658894
      pz      :     1.524857  p :     4.610637
      px      :     1.520021
      py      :     1.565759
      dz2     :     0.000387  d :     0.008200
      dxz     :     0.002658
      dyz     :     0.001559
      dx2y2   :     0.002818
      dxy     :     0.000778

  3 H s       :     0.700262  s :     0.700262
      pz      :     0.026408  p :     0.067051
      px      :     0.026019
      py      :     0.014624

  4 H s       :     0.700942  s :     0.700942
      pz      :     0.025021  p :     0.067076
      px      :     0.027198
      py      :     0.014856

  5 O s       :     3.656295  s :     3.656295
      pz      :     1.511870  p :     4.613965
      px      :     1.493063
      py      :     1.609031
      dz2     :     0.000171  d :     0.008082
      dxz     :     0.002553
      dyz     :     0.001834
      dx2y2   :     0.002732
      dxy     :     0.000792

  6 H s       :     0.701302  s :     0.701302
      pz      :     0.023980  p :     0.067117
      px      :     0.013906
      py      :     0.029231

  7 H s       :     0.697184  s :     0.697184
      pz      :     0.030596  p :     0.067055
      px      :     0.021162
      py      :     0.015297

  8 O s       :     3.657629  s :     3.657629
      pz      :     1.514280  p :     4.612664
      px      :     1.336058
      py      :     1.762325
      dz2     :     0.003056  d :     0.008063
      dxz     :     0.002099
      dyz     :     0.000716
      dx2y2   :     0.001172
      dxy     :     0.001021

  9 H s       :     0.701441  s :     0.701441
      pz      :     0.014153  p :     0.067103
      px      :     0.035442
      py      :     0.017509

 10 H s       :     0.703591  s :     0.703591
      pz      :     0.019890  p :     0.067139
      px      :     0.024780
      py      :     0.022468

 11 O s       :     3.653925  s :     3.653925
      pz      :     1.813167  p :     4.615200
      px      :     1.327722
      py      :     1.474311
      dz2     :     0.001033  d :     0.008023
      dxz     :     0.000440
      dyz     :     0.001696
      dx2y2   :     0.000625
      dxy     :     0.004228

 12 H s       :     0.700145  s :     0.700145
      pz      :     0.016675  p :     0.067088
      px      :     0.032766
      py      :     0.017646

 13 H s       :     0.698980  s :     0.698980
      pz      :     0.032346  p :     0.067202
      px      :     0.016715
      py      :     0.018141

 14 O s       :     3.657649  s :     3.657649
      pz      :     1.414358  p :     4.610587
      px      :     1.887335
      py      :     1.308894
      dz2     :     0.003428  d :     0.008180
      dxz     :     0.001132
      dyz     :     0.000856
      dx2y2   :     0.001832
      dxy     :     0.000932

 15 H s       :     0.703093  s :     0.703093
      pz      :     0.013609  p :     0.067061
      px      :     0.016562
      py      :     0.036890

 16 H s       :     0.702115  s :     0.702115
      pz      :     0.013560  p :     0.067012
      px      :     0.016669
      py      :     0.036783

 17 O s       :     3.654926  s :     3.654926
      pz      :     1.424050  p :     4.616832
      px      :     1.898759
      py      :     1.294023
      dz2     :     0.003177  d :     0.007964
      dxz     :     0.000814
      dyz     :     0.001686
      dx2y2   :     0.001520
      dxy     :     0.000767

 18 H s       :     0.698884  s :     0.698884
      pz      :     0.031411  p :     0.067017
      px      :     0.015973
      py      :     0.019633



                     *******************************
                     * LOEWDIN POPULATION ANALYSIS *
                     *******************************

----------------------
LOEWDIN ATOMIC CHARGES
----------------------
   0 Zn:    0.724485
   1 H :    0.129152
   2 O :   -0.043866
   3 H :    0.126162
   4 H :    0.125924
   5 O :   -0.042779
   6 H :    0.128505
   7 H :    0.128813
   8 O :   -0.042148
   9 H :    0.128926
  10 H :    0.126828
  11 O :   -0.041985
  12 H :    0.126865
  13 H :    0.127240
  14 O :   -0.042747
  15 H :    0.123456
  16 H :    0.128407
  17 O :   -0.041794
  18 H :    0.130556

-------------------------------
LOEWDIN REDUCED ORBITAL CHARGES
-------------------------------
  0 Zns       :     6.470783  s :     6.470783
      pz      :     4.250599  p :    12.761249
      px      :     4.255582
      py      :     4.255069
      dz2     :     2.002299  d :    10.043327
      dxz     :     2.013404
      dyz     :     2.012161
      dx2y2   :     2.016050
      dxy     :     1.999414
      f0      :     0.000019  f :     0.000156
      f+1     :     0.000016
      f-1     :     0.000021
      f+2     :     0.000041
      f-2     :     0.000020
      f+3     :     0.000015
      f-3     :     0.000023

  1 H s       :     0.699585  s :     0.699585
      pz      :     0.053059  p :     0.171263
      px      :     0.036404
      py      :     0.081800

  2 O s       :     3.388101  s :     3.388101
      pz      :     1.524202  p :     4.639425
      px      :     1.533708
      py      :     1.581515
      dz2     :     0.000467  d :     0.016339
      dxz     :     0.006101
      dyz     :     0.003662
      dx2y2   :     0.005364
      dxy     :     0.000745

  3 H s       :     0.702290  s :     0.702290
      pz      :     0.062495  p :     0.171548
      px      :     0.073522
      py      :     0.035530

  4 H s       :     0.702116  s :     0.702116
      pz      :     0.058080  p :     0.171960
      px      :     0.076742
      py      :     0.037138

  5 O s       :     3.385425  s :     3.385425
      pz      :     1.511656  p :     4.641089
      px      :     1.514150
      py      :     1.615283
      dz2     :     0.000127  d :     0.016265
      dxz     :     0.005912
      dyz     :     0.004327
      dx2y2   :     0.005165
      dxy     :     0.000734

  6 H s       :     0.699767  s :     0.699767
      pz      :     0.057842  p :     0.171728
      px      :     0.035552
      py      :     0.078334

  7 H s       :     0.699453  s :     0.699453
      pz      :     0.084086  p :     0.171734
      px      :     0.042981
      py      :     0.044667

  8 O s       :     3.386444  s :     3.386444
      pz      :     1.547480  p :     4.639495
      px      :     1.373054
      py      :     1.718961
      dz2     :     0.005546  d :     0.016209
      dxz     :     0.004432
      dyz     :     0.000683
      dx2y2   :     0.003169
      dxy     :     0.002378

  9 H s       :     0.699610  s :     0.699610
      pz      :     0.035660  p :     0.171465
      px      :     0.084071
      py      :     0.051734

 10 H s       :     0.701094  s :     0.701094
      pz      :     0.054610  p :     0.172078
      px      :     0.052606
      py      :     0.064862

 11 O s       :     3.382482  s :     3.382482
      pz      :     1.766017  p :     4.643238
      px      :     1.361586
      py      :     1.515634
      dz2     :     0.001858  d :     0.016265
      dxz     :     0.001338
      dyz     :     0.002674
      dx2y2   :     0.001367
      dxy     :     0.009028

 12 H s       :     0.701213  s :     0.701213
      pz      :     0.046896  p :     0.171922
      px      :     0.074664
      py      :     0.050361

 13 H s       :     0.700669  s :     0.700669
      pz      :     0.087925  p :     0.172091
      px      :     0.049382
      py      :     0.034784

 14 O s       :     3.386793  s :     3.386793
      pz      :     1.454358  p :     4.639552
      px      :     1.831319
      py      :     1.353875
      dz2     :     0.007061  d :     0.016402
      dxz     :     0.001405
      dyz     :     0.002269
      dx2y2   :     0.004338
      dxy     :     0.001329

 15 H s       :     0.704758  s :     0.704758
      pz      :     0.031037  p :     0.171786
      px      :     0.048822
      py      :     0.091927

 16 H s       :     0.699887  s :     0.699887
      pz      :     0.032818  p :     0.171706
      px      :     0.049253
      py      :     0.089635

 17 O s       :     3.383881  s :     3.383881
      pz      :     1.466149  p :     4.641798
      px      :     1.838543
      py      :     1.337107
      dz2     :     0.006342  d :     0.016115
      dxz     :     0.000707
      dyz     :     0.003961
      dx2y2   :     0.003933
      dxy     :     0.001171

 18 H s       :     0.697927  s :     0.697927
      pz      :     0.086361  p :     0.171517
      px      :     0.047550
      py      :     0.037606



                      *****************************
                      * MAYER POPULATION ANALYSIS *
                      *****************************

  NA   - Mulliken gross atomic population
  ZA   - Total nuclear charge
  QA   - Mulliken gross atomic charge
  VA   - Mayer's total valence
  BVA  - Mayer's bonded valence
  FA   - Mayer's free valence

  ATOM       NA         ZA         QA         VA         BVA        FA
  0 Zn    29.1192    30.0000     0.8808     2.0160     2.0160     0.0000
  1 H      0.7672     1.0000     0.2328     0.9794     0.9794    -0.0000
  2 O      8.2777     8.0000    -0.2777     2.2622     2.2622     0.0000
  3 H      0.7673     1.0000     0.2327     0.9801     0.9801     0.0000
  4 H      0.7680     1.0000     0.2320     0.9817     0.9817     0.0000
  5 O      8.2783     8.0000    -0.2783     2.2603     2.2603     0.0000
  6 H      0.7684     1.0000     0.2316     0.9812     0.9812     0.0000
  7 H      0.7642     1.0000     0.2358     0.9760     0.9760    -0.0000
  8 O      8.2784     8.0000    -0.2784     2.2629     2.2629    -0.0000
  9 H      0.7685     1.0000     0.2315     0.9808     0.9808    -0.0000
 10 H      0.7707     1.0000     0.2293     0.9843     0.9843    -0.0000
 11 O      8.2771     8.0000    -0.2771     2.2598     2.2598    -0.0000
 12 H      0.7672     1.0000     0.2328     0.9798     0.9798    -0.0000
 13 H      0.7662     1.0000     0.2338     0.9758     0.9758    -0.0000
 14 O      8.2764     8.0000    -0.2764     2.2623     2.2623     0.0000
 15 H      0.7702     1.0000     0.2298     0.9830     0.9830    -0.0000
 16 H      0.7691     1.0000     0.2309     0.9851     0.9851    -0.0000
 17 O      8.2797     8.0000    -0.2797     2.2602     2.2602    -0.0000
 18 H      0.7659     1.0000     0.2341     0.9791     0.9791    -0.0000

  Mayer bond orders larger than 0.100000
B(  0-Zn,  2-O ) :   0.3299 B(  0-Zn,  5-O ) :   0.3256 B(  0-Zn,  8-O ) :   0.3251 
B(  0-Zn, 11-O ) :   0.3246 B(  0-Zn, 14-O ) :   0.3264 B(  0-Zn, 17-O ) :   0.3267 
B(  1-H ,  2-O ) :   0.9493 B(  2-O ,  3-H ) :   0.9477 B(  4-H ,  5-O ) :   0.9479 
B(  5-O ,  6-H ) :   0.9498 B(  7-H ,  8-O ) :   0.9479 B(  8-O ,  9-H ) :   0.9501 
B( 10-H , 11-O ) :   0.9499 B( 11-O , 12-H ) :   0.9480 B( 13-H , 14-O ) :   0.9503 
B( 14-O , 15-H ) :   0.9489 B( 16-H , 17-O ) :   0.9476 B( 17-O , 18-H ) :   0.9479 


Environment variable NBOEXE for nbo6.exe or nbo5.exe not set! Skipping NBO-Analysis

-------
TIMINGS
-------

Total SCF time: 0 days 0 hours 0 min 4 sec 

Total time                  ....       4.298 sec
Sum of individual times     ....       4.260 sec  ( 99.1%)

SCF preparation             ....       1.054 sec  ( 24.5%)
Fock matrix formation       ....       2.965 sec  ( 69.0%)
  Startup                   ....       0.013 sec  (  0.4% of F)
  Split-RI-J                ....       0.250 sec  (  8.4% of F)
  Chain of spheres X        ....       1.693 sec  ( 57.1% of F)
  XC integration            ....       0.418 sec  ( 14.1% of F)
    XC Preparation          ....       0.000 sec  (  0.0% of XC)
    Basis function eval.    ....       0.110 sec  ( 26.3% of XC)
    Density eval.           ....       0.038 sec  (  9.2% of XC)
    XC-Functional eval.     ....       0.029 sec  (  7.0% of XC)
    XC-Potential eval.      ....       0.046 sec  ( 10.9% of XC)
  CPCM terms                ....       0.550 sec  ( 18.6% of F)
Diagonalization             ....       0.000 sec  (  0.0%)
Density matrix formation    ....       0.025 sec  (  0.6%)
Total Energy calculation    ....       0.024 sec  (  0.6%)
Population analysis         ....       0.022 sec  (  0.5%)
Orbital Transformation      ....       0.021 sec  (  0.5%)
Orbital Orthonormalization  ....       0.000 sec  (  0.0%)
DIIS solution               ....       0.103 sec  (  2.4%)
SOSCF solution              ....       0.046 sec  (  1.1%)
Finished LeanSCF after   4.4 sec

Maximum memory used throughout the entire LEANSCF-calculation: 19.6 MB
[psid00:123737] 29 more processes have sent help message help-mpi-btl-openib.txt / ib port not selected
[psid00:123737] Set MCA parameter "orte_base_help_aggregate" to 0 to see all help / error messages
[psid00:123737] 29 more processes have sent help message help-mpi-btl-openib.txt / error in device init


-------------------------------------------------------------------------------
                          DFT DISPERSION CORRECTION                            
                                                                               
                              DFTD3 V3.1  Rev 1                                
                          USING Becke-Johnson damping                          
-------------------------------------------------------------------------------
The B3LYP functional is recognized
Active option DFTDOPT                   ...         4   

molecular C6(AA) [au] = 2706.073998 


            DFT-D V3
 parameters
 s6 scaling factor         :     1.0000 
 a1 scaling factor         :     0.3981 
 s8 scaling factor         :     1.9889 
 a2 scaling factor         :     4.4211 
 ad hoc parameters k1-k3   :    16.0000     1.3333    -4.0000 

 Edisp/kcal,au: -15.263412508136  -0.024323793522 
 E6   /kcal   :  -7.182046266 
 E8   /kcal   :  -8.081366242 
 % E8         :  52.945999051 

-------------------------   ----------------
Dispersion correction           -0.024323794
-------------------------   ----------------


-------------------------   --------------------
FINAL SINGLE POINT ENERGY     -2236.951355251434
-------------------------   --------------------

--------------------------------------------------------------------------
By default, for Open MPI 4.0 and later, infiniband ports on a device
are not used by default.  The intent is to use UCX for these devices.
You can override this policy by setting the btl_openib_allow_ib MCA parameter
to true.

  Local host:              psid00
  Local adapter:           mlx5_0
  Local port:              1

--------------------------------------------------------------------------
--------------------------------------------------------------------------
WARNING: There was an error initializing an OpenFabrics device.

  Local host:   psid00
  Local device: mlx5_0
--------------------------------------------------------------------------


           ************************************************************
           *        Program running with 30 parallel MPI-processes    *
           *              working on a common directory               *
           ************************************************************
------------------------------------------------------------------------------
                         ORCA SCF GRADIENT CALCULATION
------------------------------------------------------------------------------

Nuc. rep. gradient        (SHARK) ... done (  0.0 sec)
HCore & Overlap gradient  (SHARK) ... done (  0.0 sec)
Split-RIJ-J gradient      (SHARK) ... done (  0.2 sec)
COSX-gradient                     ... done (  0.8 sec)
XC gradient                       ... done (  0.2 sec)
CPCM gradient                     ... done (  0.2 sec)
Dispersion correction             ... done (  0.1 sec)

-------------------
DISPERSION GRADIENT
-------------------

   1   Zn  :   -0.000023689    0.000019524    0.000021625
   2   H   :   -0.000344137   -0.000083211   -0.000174437
   3   O   :   -0.000571081   -0.000048366   -0.000227713
   4   H   :   -0.000364423   -0.000026604   -0.000091780
   5   H   :    0.000369502    0.000026722    0.000111381
   6   O   :    0.000550347    0.000027122    0.000264242
   7   H   :    0.000339030    0.000075156    0.000196490
   8   H   :   -0.000012901    0.000325011   -0.000206659
   9   O   :    0.000013123    0.000557540   -0.000255255
  10   H   :    0.000082721    0.000351731   -0.000171488
  11   H   :   -0.000068571   -0.000359459    0.000142987
  12   O   :   -0.000033129   -0.000539159    0.000287029
  13   H   :    0.000028424   -0.000338732    0.000178837
  14   H   :   -0.000146239    0.000123345    0.000338366
  15   O   :   -0.000281464    0.000259615    0.000454333
  16   H   :   -0.000148226    0.000222071    0.000267789
  17   H   :    0.000156482   -0.000205653   -0.000301164
  18   O   :    0.000299139   -0.000256873   -0.000489330
  19   H   :    0.000155093   -0.000129778   -0.000345254

Difference to translation invariance:
           :    0.0000000000   -0.0000000000    0.0000000000

Difference to rotation invariance:
           :    0.0000000000   -0.0000000000   -0.0000000000

Norm of the Dispersion gradient    ...    0.0020204151
RMS gradient                       ...    0.0002676105
MAX gradient                       ...    0.0005710809

------------------
CARTESIAN GRADIENT
------------------

   1   Zn  :    0.000598404   -0.000822534   -0.000824089
   2   H   :   -0.000558187   -0.001475267    0.000093455
   3   O   :    0.000382781    0.002212421    0.000941884
   4   H   :   -0.000472602   -0.000792190   -0.000322328
   5   H   :   -0.000027799    0.000064529    0.000316331
   6   O   :   -0.000074592   -0.000718657    0.000102059
   7   H   :    0.000161695    0.000228823   -0.000026973
   8   H   :    0.000187272   -0.000065815    0.000003273
   9   O   :   -0.000587140    0.000537318   -0.000051201
  10   H   :    0.000320727    0.000212555   -0.000193614
  11   H   :    0.000364330   -0.000083403    0.000243287
  12   O   :    0.000326559    0.000979121   -0.000616877
  13   H   :   -0.000347706   -0.000134579   -0.000199791
  14   H   :    0.000019433    0.000423254   -0.000642469
  15   O   :   -0.000710835   -0.000930545    0.000747591
  16   H   :    0.000390802    0.000462344   -0.000147753
  17   H   :   -0.000041385   -0.000240075   -0.000330485
  18   O   :    0.000031045    0.000548674    0.001209814
  19   H   :    0.000037198   -0.000405975   -0.000302113

Difference to translation invariance:
           :    0.0000000002    0.0000000003    0.0000000005

Difference to rotation invariance:
           :   -0.0020645588    0.0003433851    0.0006975361

Norm of the Cartesian gradient     ...    0.0044269103
RMS gradient                       ...    0.0005863586
MAX gradient                       ...    0.0022124212

-------
TIMINGS
-------

Total SCF gradient time     ....        1.461 sec

Densities                   ....       0.001 sec  (  0.0%)
One electron gradient       ....       0.036 sec  (  2.5%)
RI-J Coulomb gradient       ....       0.207 sec  ( 14.2%)
COSX gradient               ....       0.758 sec  ( 51.9%)
XC gradient                 ....       0.173 sec  ( 11.8%)
CPCM gradient               ....       0.229 sec  ( 15.6%)
   A-Matrix (El+Nuc)        ....       0.085 sec  (  5.8%)
   Potential                ....       0.143 sec  (  9.8%)

Maximum memory used throughout the entire SCFGRAD-calculation: 30.1 MB
[psid00:123835] 29 more processes have sent help message help-mpi-btl-openib.txt / ib port not selected
[psid00:123835] Set MCA parameter "orte_base_help_aggregate" to 0 to see all help / error messages
[psid00:123835] 29 more processes have sent help message help-mpi-btl-openib.txt / error in device init
------------------------------------------------------------------------------
                         ORCA GEOMETRY RELAXATION STEP
------------------------------------------------------------------------------

Reading the OPT-File                    .... done
[...]
      py      :     0.037126

  4 H s       :     0.702418  s :     0.702418
      pz      :     0.060071  p :     0.171911
      px      :     0.074712
      py      :     0.037129

  5 O s       :     3.384275  s :     3.384275
      pz      :     1.497310  p :     4.641727
      px      :     1.525498
      py      :     1.618919
      dz2     :     0.000187  d :     0.016248
      dxz     :     0.006087
      dyz     :     0.004354
      dx2y2   :     0.004854
      dxy     :     0.000766

  6 H s       :     0.699505  s :     0.699505
      pz      :     0.057234  p :     0.171777
      px      :     0.036242
      py      :     0.078302

  7 H s       :     0.702010  s :     0.702010
      pz      :     0.078118  p :     0.171908
      px      :     0.048514
      py      :     0.045276

  8 O s       :     3.384948  s :     3.384948
      pz      :     1.576018  p :     4.641508
      px      :     1.331707
      py      :     1.733783
      dz2     :     0.003479  d :     0.016253
      dxz     :     0.007001
      dyz     :     0.000727
      dx2y2   :     0.003168
      dxy     :     0.001878

  9 H s       :     0.700039  s :     0.700039
      pz      :     0.040415  p :     0.171865
      px      :     0.080754
      py      :     0.050697

 10 H s       :     0.700495  s :     0.700495
      pz      :     0.055462  p :     0.171920
      px      :     0.051998
      py      :     0.064460

 11 O s       :     3.383521  s :     3.383521
      pz      :     1.750181  p :     4.641853
      px      :     1.373909
      py      :     1.517764
      dz2     :     0.001729  d :     0.016218
      dxz     :     0.001476
      dyz     :     0.002961
      dx2y2   :     0.001364
      dxy     :     0.008689

 12 H s       :     0.700320  s :     0.700320
      pz      :     0.046690  p :     0.171709
      px      :     0.074604
      py      :     0.050416

 13 H s       :     0.700780  s :     0.700780
      pz      :     0.085759  p :     0.171713
      px      :     0.047996
      py      :     0.037958

 14 O s       :     3.383304  s :     3.383304
      pz      :     1.467284  p :     4.641379
      px      :     1.836841
      py      :     1.337254
      dz2     :     0.006249  d :     0.016286
      dxz     :     0.000883
      dyz     :     0.003892
      dx2y2   :     0.003864
      dxy     :     0.001397

 15 H s       :     0.702156  s :     0.702156
      pz      :     0.032640  p :     0.171890
      px      :     0.049666
      py      :     0.089584

 16 H s       :     0.700002  s :     0.700002
      pz      :     0.032824  p :     0.171902
      px      :     0.048823
      py      :     0.090254

 17 O s       :     3.384771  s :     3.384771
      pz      :     1.467944  p :     4.642543
      px      :     1.839303
      py      :     1.335296
      dz2     :     0.006202  d :     0.016134
      dxz     :     0.000937
      dyz     :     0.003815
      dx2y2   :     0.004153
      dxy     :     0.001028

 18 H s       :     0.699539  s :     0.699539
      pz      :     0.085977  p :     0.171814
      px      :     0.048377
      py      :     0.037461



                      *****************************
                      * MAYER POPULATION ANALYSIS *
                      *****************************

  NA   - Mulliken gross atomic population
  ZA   - Total nuclear charge
  QA   - Mulliken gross atomic charge
  VA   - Mayer's total valence
  BVA  - Mayer's bonded valence
  FA   - Mayer's free valence

  ATOM       NA         ZA         QA         VA         BVA        FA
  0 Zn    29.1190    30.0000     0.8810     2.0169     2.0169    -0.0000
  1 H      0.7688     1.0000     0.2312     0.9822     0.9822     0.0000
  2 O      8.2784     8.0000    -0.2784     2.2623     2.2623     0.0000
  3 H      0.7651     1.0000     0.2349     0.9776     0.9776     0.0000
  4 H      0.7678     1.0000     0.2322     0.9819     0.9819    -0.0000
  5 O      8.2785     8.0000    -0.2785     2.2609     2.2609    -0.0000
  6 H      0.7676     1.0000     0.2324     0.9801     0.9801     0.0000
  7 H      0.7670     1.0000     0.2330     0.9805     0.9805    -0.0000
  8 O      8.2783     8.0000    -0.2783     2.2605     2.2605    -0.0000
  9 H      0.7690     1.0000     0.2310     0.9813     0.9813     0.0000
 10 H      0.7693     1.0000     0.2307     0.9827     0.9827     0.0000
 11 O      8.2776     8.0000    -0.2776     2.2617     2.2617    -0.0000
 12 H      0.7658     1.0000     0.2342     0.9777     0.9777    -0.0000
 13 H      0.7660     1.0000     0.2340     0.9762     0.9762     0.0000
 14 O      8.2767     8.0000    -0.2767     2.2628     2.2628     0.0000
 15 H      0.7671     1.0000     0.2329     0.9787     0.9787     0.0000
 16 H      0.7689     1.0000     0.2311     0.9838     0.9838     0.0000
 17 O      8.2806     8.0000    -0.2806     2.2575     2.2575     0.0000
 18 H      0.7685     1.0000     0.2315     0.9825     0.9825     0.0000

  Mayer bond orders larger than 0.100000
B(  0-Zn,  2-O ) :   0.3261 B(  0-Zn,  5-O ) :   0.3291 B(  0-Zn,  8-O ) :   0.3250 
B(  0-Zn, 11-O ) :   0.3275 B(  0-Zn, 14-O ) :   0.3322 B(  0-Zn, 17-O ) :   0.3185 
B(  1-H ,  2-O ) :   0.9496 B(  2-O ,  3-H ) :   0.9474 B(  4-H ,  5-O ) :   0.9475 
B(  5-O ,  6-H ) :   0.9494 B(  7-H ,  8-O ) :   0.9475 B(  8-O ,  9-H ) :   0.9505 
B( 10-H , 11-O ) :   0.9495 B( 11-O , 12-H ) :   0.9481 B( 13-H , 14-O ) :   0.9493 
B( 14-O , 15-H ) :   0.9487 B( 16-H , 17-O ) :   0.9483 B( 17-O , 18-H ) :   0.9489 


Environment variable NBOEXE for nbo6.exe or nbo5.exe not set! Skipping NBO-Analysis

-------
TIMINGS
-------

Total SCF time: 0 days 0 hours 0 min 2 sec 

Total time                  ....       2.597 sec
Sum of individual times     ....       2.556 sec  ( 98.4%)

SCF preparation             ....       1.097 sec  ( 42.2%)
Fock matrix formation       ....       1.328 sec  ( 51.2%)
  Startup                   ....       0.006 sec  (  0.5% of F)
  Split-RI-J                ....       0.098 sec  (  7.4% of F)
  Chain of spheres X        ....       0.846 sec  ( 63.7% of F)
  XC integration            ....       0.170 sec  ( 12.8% of F)
    Basis function eval.    ....       0.039 sec  ( 22.7% of XC)
    Density eval.           ....       0.015 sec  (  8.9% of XC)
    XC-Functional eval.     ....       0.011 sec  (  6.2% of XC)
    XC-Potential eval.      ....       0.017 sec  ( 10.2% of XC)
  CPCM terms                ....       0.193 sec  ( 14.6% of F)
Diagonalization             ....       0.000 sec  (  0.0%)
Density matrix formation    ....       0.009 sec  (  0.4%)
Total Energy calculation    ....       0.010 sec  (  0.4%)
Population analysis         ....       0.058 sec  (  2.2%)
Orbital Transformation      ....       0.009 sec  (  0.3%)
Orbital Orthonormalization  ....       0.000 sec  (  0.0%)
DIIS solution               ....       0.013 sec  (  0.5%)
SOSCF solution              ....       0.032 sec  (  1.2%)
Finished LeanSCF after   2.7 sec

Maximum memory used throughout the entire LEANSCF-calculation: 22.0 MB
[psid00:132824] 29 more processes have sent help message help-mpi-btl-openib.txt / ib port not selected
[psid00:132824] Set MCA parameter "orte_base_help_aggregate" to 0 to see all help / error messages
[psid00:132824] 29 more processes have sent help message help-mpi-btl-openib.txt / error in device init


-------------------------------------------------------------------------------
                          DFT DISPERSION CORRECTION                            
                                                                               
                              DFTD3 V3.1  Rev 1                                
                          USING Becke-Johnson damping                          
-------------------------------------------------------------------------------
The B3LYP functional is recognized
Active option DFTDOPT                   ...         4   

molecular C6(AA) [au] = 2706.074473 


            DFT-D V3
 parameters
 s6 scaling factor         :     1.0000 
 a1 scaling factor         :     0.3981 
 s8 scaling factor         :     1.9889 
 a2 scaling factor         :     4.4211 
 ad hoc parameters k1-k3   :    16.0000     1.3333    -4.0000 

 Edisp/kcal,au: -15.270429866955  -0.024334976394 
 E6   /kcal   :  -7.185022060 
 E8   /kcal   :  -8.085407807 
 % E8         :  52.948134910 

-------------------------   ----------------
Dispersion correction           -0.024334976
-------------------------   ----------------


-------------------------   --------------------
FINAL SINGLE POINT ENERGY     -2236.951605955974
-------------------------   --------------------

                                *** OPTIMIZATION RUN DONE ***

--------------------------------------------------------------------------
By default, for Open MPI 4.0 and later, infiniband ports on a device
are not used by default.  The intent is to use UCX for these devices.
You can override this policy by setting the btl_openib_allow_ib MCA parameter
to true.

  Local host:              psid00
  Local adapter:           mlx5_0
  Local port:              1

--------------------------------------------------------------------------
--------------------------------------------------------------------------
WARNING: There was an error initializing an OpenFabrics device.

  Local host:   psid00
  Local device: mlx5_0
--------------------------------------------------------------------------


           ************************************************************
           *        Program running with 30 parallel MPI-processes    *
           *              working on a common directory               *
           ************************************************************

------------------------------------------------------------------------------
                              ORCA PROPERTY CALCULATIONS
------------------------------------------------------------------------------

GBWName                                 ... zinc_hydrate_1.gbw
Number of atoms                         ...     19
Number of basis functions               ...    175
Max core memory                         ...   1024 MB

Electric properties:
Dipole moment                           ... YES
Quadrupole moment                       ...  NO
Static polarizability (Dipole/Dipole)   ...  NO
Static polarizability (Dipole/Quad.)    ...  NO
Static polarizability (Quad./Quad.)     ...  NO
Static polarizability (Velocity)        ...  NO

Atomic electric properties:
Dipole moment                           ...  NO
Quadrupole moment                       ...  NO
Static polarizability                   ...  NO

Choice of electric origin               ... Center of mass
Position of electric origin             ...     1.931962     1.725398     2.206989

General magnetic properties:
Magnetizability                         ...  NO

EPR properties:
g-Tensor (aka g-matrix)                 ...  NO
Zero-Field splitting spin-orbit         ...  NO
Zero-field splitting spin-spin          ...  NO
Hyperfine couplings                     ...  NO (   0 nuclei)
Quadrupole couplings                    ...  NO (   0 nuclei)
Contact density                         ...  NO (   0 nuclei)

NMR properties:
Chemical shifts                         ...  NO (   0 nuclei)
Spin-rotation constants                 ...  NO (   0 nuclei)
Spin-spin couplings                     ...  NO (   0 nuclei,    0 pairs)

Choice of magnetic origin               ... GIAO
Position of magnetic origin             ...     0.000000     0.000000     0.000000

Properties with geometric perturbations:
SCF Hessian                             ...  NO
IR spectrum                             ...  NO
VCD spectrum                            ...  NO
X-ray spectroscopy properties:
SCF XES/XAS/RIXS spectra                ...  NO


-------------
DIPOLE MOMENT
-------------

Method             : SCF
Type of density    : Electron Density
Multiplicity       :   1
Irrep              :   0
Energy             : -2236.9272709795804985 Eh
Relativity type    : 
Basis              : AO
                                X                 Y                 Z
Electronic contribution:     -0.007126024      -0.013256237       0.097162647
Nuclear contribution   :      0.465552797      -0.563277396      -1.129711814
                        -----------------------------------------
Total Dipole Moment    :      0.458426773      -0.576533633      -1.032549167
                        -----------------------------------------
Magnitude (a.u.)       :      1.268346923
Magnitude (Debye)      :      3.223881673



--------------------
Rotational spectrum 
--------------------
 
Rotational constants in cm-1:             0.050253             0.049529             0.048847 
Rotational constants in MHz :          1506.556014          1484.830143          1464.405665 

Dipole components along the rotational axes: 
x,y,z [a.u.] :     0.690942     0.746148    -0.758001 
x,y,z [Debye]:     1.756235     1.896558    -1.926686 

 

Dipole moment calculation done in   0.0 sec 

Maximum memory used throughout the entire PROP-calculation: 10.9 MB
[psid00:132923] 29 more processes have sent help message help-mpi-btl-openib.txt / ib port not selected
[psid00:132923] Set MCA parameter "orte_base_help_aggregate" to 0 to see all help / error messages
[psid00:132923] 29 more processes have sent help message help-mpi-btl-openib.txt / error in device init
--------------------------------------------------------------------------
By default, for Open MPI 4.0 and later, infiniband ports on a device
are not used by default.  The intent is to use UCX for these devices.
You can override this policy by setting the btl_openib_allow_ib MCA parameter
to true.

  Local host:              psid00
  Local adapter:           mlx5_0
  Local port:              1

--------------------------------------------------------------------------
--------------------------------------------------------------------------
WARNING: There was an error initializing an OpenFabrics device.

  Local host:   psid00
  Local device: mlx5_0
--------------------------------------------------------------------------
[psid00:133018] 29 more processes have sent help message help-mpi-btl-openib.txt / ib port not selected
[psid00:133018] Set MCA parameter "orte_base_help_aggregate" to 0 to see all help / error messages
[psid00:133018] 29 more processes have sent help message help-mpi-btl-openib.txt / error in device init

--------------------------------
SUGGESTED CITATIONS FOR THIS RUN
--------------------------------

Below you find a list of papers that are relevant to this ORCA run
We neither can nor want to force you to cite these papers, but we appreciate if you do
You receive ORCA, which is the product of decades of hard work by many enthusiastic individuals, for free
The only thing we kindly ask in return is that you cite our papers,
We deeply appreciate it, if you show your appreciation for ORCA by not just citing the generic ORCA reference.

Please note that relegating all ORCA citations to the supporting information does *not* help us.
SI sections are not indexed - citations you put there will not count into any citation statistics
But we need these citations in order to attract the funding resources that allow us to do what we are doing

Therefore, if you are a happy ORCA user, please consider citing a few of the papers listed below in the main body of your paper

In addition to the list printed below, the program has created the file zinc_hydrate_1.bibtex that contains the list in bibtex format
You can import this file easily into all common literature databanks and citation aid programs


List of essential papers. We consider these as the minimum necessary citations

  1. Neese,F.
     Software update: the ORCA program system, version 5.0
     WIRES Comput. Molec. Sci., 2022 12(1)e1606
     doi.org/10.1002/wcms.1606

List of papers to cite with high priority. The work reported in these papers was absolutely
necessary for this run to complete.
Our perspective: the developers of density functionals and basis sets usually get cited in chemistry papers
Good! But without the algorithms to do something with them, the functionals or basis sets would not do anything.
Hence, in our opinion, the algorithm design and method developments papers are equally worthy of getting cited

  1. Neese,F.
     An improvement of the resolution of the identity approximation for the formation of the Coulomb matrix
     J. Comp. Chem., 2003 24(14)1740-1747
     doi.org/10.1002/jcc.10318
  2. Neese,F.; Wennmohs,F.; Hansen,A.; Becker,U.
     Efficient, approximate and parallel Hartree-Fock and hybrid DFT calculations. A 'chain-of-spheres' algorithm for the Hartree-Fock exchange
     Chem. Phys., 2009 356(1-3)98-109
     doi.org/10.1016/j.chemphys.2008.10.036
  3. Garcia-Rates,M.; Neese,F.
     Effect of the Solute Cavity on the Solvation Energy and its Derivatives within the Framework of the Gaussian Charge Scheme
     J. Comput. Chem., 2020 41 922-939
     doi.org/10.1002/jcc.26139
  4. Helmich-Paris,B.; de Souza,B.; Neese,F.; Izsák,R.
     An improved chain of spheres for exchange algorithm
     J. Chem. Phys., 2021 155 104109
     doi.org/doi: 10.1063/5.0058766.
  5. Neese,F.
     The SHARK Integral Generation and Digestion System
     J. Comp. Chem., 2022  1-16
     doi.org/10.1002/jcc.26942
  6. Grimme,S.; Antony,J.; Ehrlich,S.; Krieg,H.
     A consistent and accurate ab initio parametrization of density functional dispersion correction (DFT-D) for the 94 elements H-Pu
     J. Chem. Phys., 2010 132 154104
     doi.org/10.1063/1.3382344
  7. Grimme,S.; Ehrlich,S.; Goerigk,L.
     Effect of the damping function in dispersion corrected density functional theory
     J. Comput. Chem., 2011 32(7)1456-1465
     doi.org/10.1002/jcc.21759

List of suggested additional citations. These are papers that are important in the 'surrounding' of 
of this run, or papers that preceded the highly important papers. If you like your results we are grateful for a citation.

  1. Izsak,R.; Neese,F.
     An overlap fitted chain of spheres exchange method
     J. Chem. Phys., 2011 135 144105
     doi.org/10.1063/1.3646921
  2. Izsak,R.; Hansen,A.; Neese,F.
     The resolution of identity and chain of spheres approximations for the LPNO-CCSD singles Fock term
     Molec. Phys., 2012 110 2413-2417
     doi.org/10.1080/00268976.2012.687466
  3. Neese,F.
     The ORCA program system
     WIRES Comput. Molec. Sci., 2012 2(1)73-78
     doi.org/10.1002/wcms.81
  4. Izsak,R.; Neese,F.; Klopper,W.
     Robust fitting techniques in the chain of spheres approximation to the Fock exchange: The role of the complementary space
     J. Chem. Phys., 2013 139 
     doi.org/10.1063/1.4819264
  5. Neese,F.
     Software update: the ORCA program system, version 4.0
     WIRES Comput. Molec. Sci., 2018 8(1)1-6
     doi.org/10.1002/wcms.1327
  6. Neese,F.; Wennmohs,F.; Becker,U.; Riplinger,C.
     The ORCA quantum chemistry program package
     J. Chem. Phys., 2020 152 Art. No. L224108
     doi.org/10.1063/5.0004608

List of optional additional citations

  1. Neese,F.
     Approximate second-order SCF convergence for spin unrestricted wavefunctions
     Chem. Phys. Lett., 2000 325(1-3)93-98
     doi.org/10.1016/s0009-2614(00)00662-x

Timings for individual modules:

Sum of individual times          ...      163.042 sec (=   2.717 min)
Startup calculation              ...       33.033 sec (=   0.551 min)  20.3 %
SCF iterations                   ...       81.994 sec (=   1.367 min)  50.3 %
Property calculations            ...        1.160 sec (=   0.019 min)   0.7 %
SCF Gradient evaluation          ...       46.692 sec (=   0.778 min)  28.6 %
Geometry relaxation              ...        0.164 sec (=   0.003 min)   0.1 %
                             ****ORCA TERMINATED NORMALLY****
TOTAL RUN TIME: 0 days 0 hours 3 minutes 4 seconds 640 msec
