
                                 *****************
                                 * O   R   C   A *
                                 *****************

                                            #,                                       
                                            ###                                      
                                            ####                                     
                                            #####                                    
                                            ######                                   
                                           ########,                                 
                                     ,,################,,,,,                         
                               ,,#################################,,                 
                          ,,##########################################,,             
                       ,#########################################, ''#####,          
                    ,#############################################,,   '####,        
                  ,##################################################,,,,####,       
                ,###########''''           ''''###############################       
              ,#####''   ,,,,##########,,,,          '''####'''          '####       
            ,##' ,,,,###########################,,,                        '##       
           ' ,,###''''                  '''############,,,                           
         ,,##''                                '''############,,,,        ,,,,,,###''
      ,#''                                            '''#######################'''  
     '                                                          ''''####''''         
             ,#######,   #######,   ,#######,      ##                                
            ,#'     '#,  ##    ##  ,#'     '#,    #''#        ,####,   ,####,        
            ##       ##  ##   ,#'  ##            #'  '#       #'       #'  '#        
            ##       ##  #######   ##           ,######,      #####,   #    #        
            '#,     ,#'  ##    ##  '#,     ,#' ,#      #,     #,   #   #,  ,#        
             '#######'   ##     ##  '#######'  #'      '#     '####' # '####'        



                #########################################################
                #                        -***-                          #
                #          Department of theory and spectroscopy        #
                #                                                       #
                #                      Frank Neese                      #
                #                                                       #
                #     Directorship, Architecture, Infrastructure        #
                #                    SHARK, DRIVERS                     #
                #        Core code/Algorithms in most modules           #
                #                                                       #
                #        Max Planck Institute fuer Kohlenforschung      #
                #                Kaiser Wilhelm Platz 1                 #
                #                 D-45470 Muelheim/Ruhr                 #
                #                      Germany                          #
                #                                                       #
                #                  All rights reserved                  #
                #                        -***-                          #
                #########################################################


                         Program Version 6.0.1  -  RELEASE   -


 With contributions from (in alphabetic order):
[Max-Planck-Institut fuer Kohlenforschung]                               
  Daniel Aravena         : Magnetic Suceptibility                        
  Michael Atanasov       : Ab Initio Ligand Field Theory (pilot matlab implementation)
  Alexander A. Auer      : GIAO ZORA, VPT2 properties, NMR spectrum      
  Ute Becker             : All parallelization in ORCA, NUMFREQ, NUMCALC 
  Giovanni Bistoni       : ED, misc. LED, open-shell LED, HFLD           
  Martin Brehm           : Molecular dynamics                            
  Dmytro Bykov           : pre 5.0 version of the SCF Hessian            
  Marcos Casanova-Páez   : Triplet and SCS-CIS(D). UHF-(DLPNO)-IP/EA/STEOM-CCSD. UHF-CVS-IP/STEOM-CCSD   
  Vijay G. Chilkuri      : MRCI spin determinant printing, contributions to CSF-ICE 
  Pauline Colinet        : FMM embedding                                 
  Dipayan Datta          : RHF DLPNO-CCSD density                        
  Achintya Kumar Dutta   : EOM-CC, STEOM-CC                              
  Nicolas Foglia         : Exact transition moments, OPA infrastructure, MCD improvements    
  Dmitry Ganyushin       : Spin-Orbit,Spin-Spin,Magnetic field MRCI      
  Miquel Garcia-Rates    : C-PCM and meta-GGA Hessian, CCSD/C-PCM, Gaussian charge scheme 
  Tiago L. C. Gouveia    : GS-ROHF, GS-ROCIS                             
  Yang Guo               : DLPNO-NEVPT2, F12-NEVPT2, CIM, IAO-localization        
  Andreas Hansen         : Spin unrestricted coupled pair/coupled cluster methods 
  Ingolf Harden          : AUTO-CI MPn and infrastructure                
  Benjamin Helmich-Paris : MC-RPA, TRAH-(SCF,CASSCF), AVAS, COSX integrals, SCF dyn. polar. 
  Lee Huntington         : MR-EOM, pCC                                   
  Robert Izsak           : Overlap fitted RIJCOSX, COSX-SCS-MP3, EOM     
  Riya Kayal             : Wick's Theorem for AUTO-CI, AUTO-CI UHF-CCSDT 
  Emily Kempfer          : AUTO-CI, RHF CISDT and CCSDT                  
  Christian Kollmar      : KDIIS, OOCD, Brueckner-CCSD(T), CCSD density, CASPT2, CASPT2-K, improved NEVPT2 
  Axel Koslowski         : Symmetry handling                             
  Simone Kossmann        : meta-GGA functionals, TD-DFT gradient, OOMP2, (MP2 Hessian; deprecated post 5.0) 
  Lucas Lang             : DCDCAS                                        
  Marvin Lechner         : AUTO-CI (C++ implementation), FIC-MRCC        
  Spencer Leger          : CASSCF response                               
  Dagmar Lenk            : GEPOL surface, SMD, ORCA-2-JSON               
  Dimitrios Liakos       : Extrapolation schemes; Compound Job, initial MDCI parallelization 
  Dimitrios Manganas     : Further ROCIS development; embedding schemes. LFT, Crystal Embedding 
  Dimitrios Pantazis     : SARC Basis sets                               
  Anastasios Papadopoulos: AUTO-CI, single reference methods and gradients 
  Taras Petrenko         : pre 6.0 DFT Hessian and TD-DFT gradient, (ASA, deprecated), ECA, 1-Electron XAS/XES, NRVS 
  Peter Pinski           : DLPNO-MP2, DLPNO-MP2 Gradient                 
  Christoph Reimann      : Effective Core Potentials                     
  Marius Retegan         : Local ZFS, SOC                                
  Christoph Riplinger    : Optimizer, TS searches, QM/MM, DLPNO-CCSD(T), (RO)-DLPNO pert. Triples 
  Michael Roemelt        : Original ROCIS implementation                 
  Masaaki Saitow         : Open-shell DLPNO-CCSD energy and density      
  Barbara Sandhoefer     : DKH picture change effects                    
  Kantharuban Sivalingam : CASSCF convergence/infrastructure, NEVPT2 and variants, FIC-MRCI 
  Bernardo de Souza      : ESD, SOC TD-DFT                               
  Georgi L. Stoychev     : AutoAux, RI-MP2 NMR, DLPNO-MP2 response, X2C  
  Van Anh Tran           : RI-MP2 g-tensors                              
  Willem Van den Heuvel  : Paramagnetic NMR                              
  Zikuan Wang            : NOTCH, Electric field optimization            
  Frank Wennmohs         : Technical directorship and infrastructure     
  Hang Xu                : AUTO-CI-Response properties                   
                                                                         
[FACCTs GmbH]                                                            
  Markus Bursch, Miquel Garcia-Rates, Christoph Riplinger, Bernardo de Souza, Georgi L. Stoychev 
                                                                 
  APM, Basis sets (HGBS, AHGBS, def-TZVP (Ac-Lr), def2-XVPD (La-Lu)), CI-OPT, improved COSX, DLPNO-Multilevel,           
  DOCKER, DRACO, updates on ESD, GOAT, IRC, LR-CPCM, MBIS, meta-GGA TD-DFT gradient, ML-optimized integration grids, 
  MM, NACMEs, nearIR, NEB, NEB-TS, NL-DFT gradient (VV10), 2- and 3-layer-ONIOM, interface openCOSMO-RS, QMMM,   
  Crystal-QMMM, SF, symmetry and pop. for TD-DFT, r2SCAN hybrids, SOLVATOR                                   
                                                                         
[Other institutions]                                                     
  V. Asgeirsson          : NEB                                           
  Christoph Bannwarth    : sTDA-DFT, sTD-DFT, PBEh-3c, B97-3c, D3        
  Sebastian Ehlert       : rSCAN, r2SCAN, r2SCAN-3c, D4, dhf basis sets  
  Marvin Friede          : D4 for Fr, Ra, Ac-Lr                          
  Lars Goerigk           : TD-DFT with DH, B97 family of functionals     
  Stefan Grimme          : VdW corrections, initial TS optimization, DFT functionals, gCP, sTDA/sTD-DF 
  Waldemar Hujo          : DFT-NL                                        
  H. Jonsson             : NEB                                           
  Holger Kruse           : gCP                                           
  Marcel Mueller         : wB97X-3c, vDZP basis set                      
  Hagen Neugebauer       : wr2SCAN                                       
  Tobias Risthaus        : range-separated hybrid DFT                    
  Lukas Wittmann         : regularized MP2, r2SCAN double-hybrids, wr2SCAN        
                                                                         
We gratefully acknowledge several colleagues who have allowed us to      
interface, adapt or use parts of their codes:                            
  Ed Valeev, F. Pavosevic, A. Kumar             : LibInt (2-el integral package), F12 methods 
  Garnet Chan, S. Sharma, J. Yang, R. Olivares  : DMRG                   
  Ulf Ekstrom                                   : XCFun DFT Library      
  Mihaly Kallay                                 : mrcc  (arbitrary order and MRCC methods)
  Frank Weinhold                                : gennbo (NPA and NBO analysis)           
  Simon Mueller                                 : openCOSMO-RS                            
  Christopher J. Cramer and Donald G. Truhlar   : smd solvation model                     
  S Lehtola, MJT Oliveira, MAL Marques          : LibXC Library                           
  Liviu Ungur et al                             : ANISO software                          


 Your calculation uses the libint2 library for the computation of 2-el integrals
 For citations please refer to: http://libint.valeyev.net

 Your ORCA version has been built with support for libXC version: 6.2.2
 For citations please refer to: https://libxc.gitlab.io

 This ORCA versions uses:
   CBLAS   interface :  Fast vector & matrix operations
   LAPACKE interface :  Fast linear algebra routines
   SCALAPACK package :  Parallel linear algebra routines
   Shared memory     :  Shared parallel matrices
   BLAS/LAPACK       :  OpenBLAS 0.3.27  USE64BITINT DYNAMIC_ARCH NO_AFFINITY SkylakeX SINGLE_THREADED
        Core in use  :  SkylakeX
   Copyright (c) 2011-2014, The OpenBLAS Project


NOTE: MaxCore=5000 MB was set to SCF,MP2,MDCI,CIPSI,MRCI and CIS
      => If you want to overwrite this, your respective input block should be placed after the MaxCore statement
Warning: RI is on but no J-basis has been assigned. Assigning Def2/J (nothing to worry about!)
================================================================================

----- Orbital basis set information -----
Your calculation utilizes the basis: def2-SVP
   F. Weigend and R. Ahlrichs, Phys. Chem. Chem. Phys. 7, 3297 (2005).

----- AuxJ basis set information -----
Your calculation utilizes the auxiliary basis: def2/J
   F. Weigend, Phys. Chem. Chem. Phys. 8, 1057 (2006).

================================================================================
                                        WARNINGS
                       Please study these warnings very carefully!
================================================================================


================================================================================
                                       INPUT FILE
================================================================================
NAME = p_toluidine_3.inp
|  1> ! B3LYP def2-SVP SP TightSCF ALLPOP KEEPDENS NBO ChelpG
|  2> 
|  3> %maxcore 5000
|  4> 
|  5> %pal
|  6> nprocs 20
|  7> end
|  8> 
|  9> * xyz 0 1
| 10>   N          -2.82676513893344      0.00006675963327     -0.01212579035329
| 11>   C           1.40576799428083     -0.00000322602912      0.01750863040617
| 12>   C          -1.45074580064305      0.00001552079318     -0.00336551744234
| 13>   C           0.67239946329423     -1.19561437669654      0.01519029985596
| 14>   C           0.67239541289611      1.19566676231243      0.01453508938872
| 15>   C          -0.72094831050918     -1.20573996146725      0.00432664568846
| 16>   C          -0.72090292161669      1.20579924606346      0.00366995373631
| 17>   C           2.91412250319734      0.00015087697169     -0.00748859753188
| 18>   H           1.20597205051403     -2.15109088442194      0.02403228251878
| 19>   H           1.20597099047902      2.15115203441828      0.02285759800009
| 20>   H          -1.25787694853262     -2.15893223270910      0.00631887856199
| 21>   H          -1.25783644882912      2.15899195964781      0.00514312814432
| 22>   H           3.32644166992439      0.88763135506127      0.49823862034237
| 23>   H           3.32633197093728     -0.89259603127737      0.48889686119733
| 24>   H           3.30438606055253      0.00563162198260     -1.04142789954108
| 25>   H          -3.34392254286109      0.86565400082816     -0.01714269527779
| 26>   H          -3.34399000415058     -0.86548342511084     -0.01666748769412
| 27> *
| 28> 
| 29>                          ****END OF INPUT****
================================================================================

                       ****************************
                       * Single Point Calculation *
                       ****************************

---------------------------------
CARTESIAN COORDINATES (ANGSTROEM)
---------------------------------
  N     -2.826765    0.000067   -0.012126
  C      1.405768   -0.000003    0.017509
  C     -1.450746    0.000016   -0.003366
  C      0.672399   -1.195614    0.015190
  C      0.672395    1.195667    0.014535
  C     -0.720948   -1.205740    0.004327
  C     -0.720903    1.205799    0.003670
  C      2.914123    0.000151   -0.007489
  H      1.205972   -2.151091    0.024032
  H      1.205971    2.151152    0.022858
  H     -1.257877   -2.158932    0.006319
  H     -1.257836    2.158992    0.005143
  H      3.326442    0.887631    0.498239
  H      3.326332   -0.892596    0.488897
  H      3.304386    0.005632   -1.041428
  H     -3.343923    0.865654   -0.017143
  H     -3.343990   -0.865483   -0.016667

----------------------------
CARTESIAN COORDINATES (A.U.)
----------------------------
  NO LB      ZA    FRAG     MASS         X           Y           Z
   0 N     7.0000    0    14.007   -5.341812    0.000126   -0.022914
   1 C     6.0000    0    12.011    2.656517   -0.000006    0.033087
   2 C     6.0000    0    12.011   -2.741512    0.000029   -0.006360
   3 C     6.0000    0    12.011    1.270651   -2.259384    0.028706
   4 C     6.0000    0    12.011    1.270643    2.259483    0.027467
   5 C     6.0000    0    12.011   -1.362395   -2.278518    0.008176
   6 C     6.0000    0    12.011   -1.362309    2.278630    0.006935
   7 C     6.0000    0    12.011    5.506893    0.000285   -0.014151
   8 H     1.0000    0     1.008    2.278957   -4.064973    0.045414
   9 H     1.0000    0     1.008    2.278955    4.065088    0.043195
  10 H     1.0000    0     1.008   -2.377043   -4.079791    0.011941
  11 H     1.0000    0     1.008   -2.376966    4.079904    0.009719
  12 H     1.0000    0     1.008    6.286064    1.677380    0.941535
  13 H     1.0000    0     1.008    6.285856   -1.686762    0.923881
  14 H     1.0000    0     1.008    6.244385    0.010642   -1.968014
  15 H     1.0000    0     1.008   -6.319098    1.635849   -0.032395
  16 H     1.0000    0     1.008   -6.319225   -1.635527   -0.031497

--------------------------------
INTERNAL COORDINATES (ANGSTROEM)
--------------------------------
 N      0   0   0     0.000000000000     0.00000000     0.00000000
 C      1   0   0     4.232636876410     0.00000000     0.00000000
 C      1   2   0     1.376047224610     0.03641154     0.00000000
 C      2   1   3     1.402612134732    58.47679990   271.73178118
 C      2   1   3     1.402665643015    58.47583190    91.97030650
 C      4   2   1     1.393426914198   121.94038100     0.05484554
 C      5   2   1     1.393377539418   121.93977809   359.94533718
 C      2   1   3     1.508561636036   178.64938018     2.15524006
 H      4   2   1     1.094400860428   119.29318233   180.17140640
 H      5   2   1     1.094405896527   119.29429446   179.82834693
 H      6   4   2     1.094016378889   119.80672948   180.20926586
 H      7   5   2     1.094018341765   119.80750810   179.79051835
 H      8   2   4     1.101539247208   111.51440759   209.31269437
 H      8   2   4     1.101504521607   111.50747429   329.90229863
 H      8   2   4     1.105154361619   111.62836783    89.60990355
 H      1   2   4     1.008324462607   120.85881606   179.95744072
 H      1   2   4     1.008325002429   120.86114820   359.80411946

---------------------------
INTERNAL COORDINATES (A.U.)
---------------------------
 N      0   0   0     0.000000000000     0.00000000     0.00000000
 C      1   0   0     7.998524520751     0.00000000     0.00000000
 C      1   2   0     2.600352401855     0.03641154     0.00000000
 C      2   1   3     2.650552806759    58.47679990   271.73178118
 C      2   1   3     2.650653922758    58.47583190    91.97030650
 C      4   2   1     2.633195255469   121.94038100     0.05484554
 C      5   2   1     2.633101950658   121.93977809   359.94533718
 C      2   1   3     2.850768348249   178.64938018     2.15524006
 H      4   2   1     2.068117906936   119.29318233   180.17140640
 H      5   2   1     2.068127423785   119.29429446   179.82834693
 H      6   4   2     2.067391342124   119.80672948   180.20926586
 H      7   5   2     2.067395051422   119.80750810   179.79051835
 H      8   2   4     2.081607502989   111.51440759   209.31269437
 H      8   2   4     2.081541881113   111.50747429   329.90229863
 H      8   2   4     2.088439079168   111.62836783    89.60990355
 H      1   2   4     1.905457088460   120.85881606   179.95744072
 H      1   2   4     1.905458108577   120.86114820   359.80411946

---------------------
BASIS SET INFORMATION
---------------------
There are 3 groups of distinct atoms

 Group   1 Type N   : 7s4p1d contracted to 3s2p1d pattern {511/31/1}
 Group   2 Type C   : 7s4p1d contracted to 3s2p1d pattern {511/31/1}
 Group   3 Type H   : 4s1p contracted to 2s1p pattern {31/1}

Atom   0N    basis set group =>   1
Atom   1C    basis set group =>   2
Atom   2C    basis set group =>   2
Atom   3C    basis set group =>   2
Atom   4C    basis set group =>   2
Atom   5C    basis set group =>   2
Atom   6C    basis set group =>   2
Atom   7C    basis set group =>   2
Atom   8H    basis set group =>   3
Atom   9H    basis set group =>   3
Atom  10H    basis set group =>   3
Atom  11H    basis set group =>   3
Atom  12H    basis set group =>   3
Atom  13H    basis set group =>   3
Atom  14H    basis set group =>   3
Atom  15H    basis set group =>   3
Atom  16H    basis set group =>   3
---------------------------------
AUXILIARY/J BASIS SET INFORMATION
---------------------------------
There are 3 groups of distinct atoms

 Group   1 Type N   : 12s5p4d2f1g contracted to 6s4p3d1f1g pattern {711111/2111/211/2/1}
 Group   2 Type C   : 12s5p4d2f1g contracted to 6s4p3d1f1g pattern {711111/2111/211/2/1}
 Group   3 Type H   : 5s2p1d contracted to 3s1p1d pattern {311/2/1}

Atom   0N    basis set group =>   1
Atom   1C    basis set group =>   2
Atom   2C    basis set group =>   2
Atom   3C    basis set group =>   2
Atom   4C    basis set group =>   2
Atom   5C    basis set group =>   2
Atom   6C    basis set group =>   2
Atom   7C    basis set group =>   2
Atom   8H    basis set group =>   3
Atom   9H    basis set group =>   3
Atom  10H    basis set group =>   3
Atom  11H    basis set group =>   3
Atom  12H    basis set group =>   3
Atom  13H    basis set group =>   3
Atom  14H    basis set group =>   3
Atom  15H    basis set group =>   3
Atom  16H    basis set group =>   3


           ************************************************************
           *        Program running with 20 parallel MPI-processes    *
           *              working on a common directory               *
           ************************************************************
------------------------------------------------------------------------------
                             ORCA STARTUP CALCULATIONS
                           -- RI-GTO INTEGRALS CHOSEN --
------------------------------------------------------------------------------
------------------------------------------------------------------------------
                   ___                                                        
                  /   \      - P O W E R E D   B Y -                         
                 /     \                                                     
                 |  |  |   _    _      __       _____    __    __             
                 |  |  |  | |  | |    /  \     |  _  \  |  |  /  |          
                  \  \/   | |  | |   /    \    | | | |  |  | /  /          
                 / \  \   | |__| |  /  /\  \   | |_| |  |  |/  /          
                |  |  |   |  __  | /  /__\  \  |    /   |      \           
                |  |  |   | |  | | |   __   |  |    \   |  |\   \          
                \     /   | |  | | |  |  |  |  | |\  \  |  | \   \       
                 \___/    |_|  |_| |__|  |__|  |_| \__\ |__|  \__/        
                                                                              
                      - O R C A' S   B I G   F R I E N D -                    
                                      &                                       
                       - I N T E G R A L  F E E D E R -                       
                                                                              
 v1 FN, 2020, v2 2021, v3 2022-2024                                           
------------------------------------------------------------------------------


----------------------
SHARK INTEGRAL PACKAGE
----------------------

Number of atoms                             ...     17
Number of basis functions                   ...    157
Number of shells                            ...     75
Maximum angular momentum                    ...      2
Integral batch strategy                     ... SHARK/LIBINT Hybrid
RI-J (if used) integral strategy            ... SPLIT-RIJ (Revised 2003 algorithm where possible)
Printlevel                                  ...      1
Contraction scheme used                     ... SEGMENTED contraction
Prescreening option                         ... SCHWARTZ
   Thresh                                   ... 2.500e-11
   Tcut                                     ... 2.500e-12
   Tpresel                                  ... 2.500e-12 
Coulomb Range Separation                    ... NOT USED
Exchange Range Separation                   ... NOT USED
Multipole approximations                    ... NOT USED
Finite Nucleus Model                        ... NOT USED
CABS basis                                  ... NOT available
Auxiliary Coulomb fitting basis             ... AVAILABLE
   # of basis functions in Aux-J            ...    491
   # of shells in Aux-J                     ...    165
   Maximum angular momentum in Aux-J        ...      4
Auxiliary J/K fitting basis                 ... NOT available
Auxiliary Correlation fitting basis         ... NOT available
Auxiliary 'external' fitting basis          ... NOT available

Checking pre-screening integrals            ... done (  0.0 sec) Dimension = 75
Check shell pair data                       ... done (  0.0 sec)
Shell pair information
Shell pair cut-off parameter TPreSel        ...   2.5e-12
Total number of shell pairs                 ...      2850
Shell pairs after pre-screening             ...      2667
Total number of primitive shell pairs       ...     10142
Primitive shell pairs kept                  ...      7026
          la=0 lb=0:    848 shell pairs
          la=1 lb=0:    982 shell pairs
          la=1 lb=1:    301 shell pairs
          la=2 lb=0:    315 shell pairs
          la=2 lb=1:    186 shell pairs
          la=2 lb=2:     35 shell pairs

Calculating one electron integrals          ... done (  0.0 sec)
Calculating RI/J V-Matrix + Cholesky decomp.... done (  0.0 sec)
Calculating Nuclear repulsion               ... done (  0.0 sec) ENN=    341.512901221440 Eh

Diagonalization of the overlap matrix:
Smallest eigenvalue                        ... 2.673e-04
Time for diagonalization                   ...    0.002 sec
Threshold for overlap eigenvalues          ... 1.000e-07
Number of eigenvalues below threshold      ... 0
Time for construction of square roots      ...    0.002 sec
Total time needed                          ...    0.010 sec

-------------------
DFT GRID GENERATION
-------------------

General Integration Accuracy     IntAcc      ... 4.388
Radial Grid Type                 RadialGrid  ... OptM3 with GC (2021)
Angular Grid (max. ang.)         AngularGrid ... 4 (Lebedev-302)
Angular grid pruning method      GridPruning ... 4 (adaptive)
Weight generation scheme         WeightScheme... mBecke (2022)
Basis function cutoff            BFCut       ... 1.0000e-11
Integration weight cutoff        WCut        ... 1.0000e-14
Partially contracted basis set               ... off
Rotationally invariant grid construction     ... off
Angular grids for H and He will be reduced by one unit

Total number of grid points                  ...    77080
Total number of batches                      ...     1213
Average number of points per batch           ...       63
Average number of grid points per atom       ...     4534

--------------------
COSX GRID GENERATION
--------------------

GRIDX 1
-------
General Integration Accuracy     IntAcc      ... 3.816
Radial Grid Type                 RadialGrid  ... OptM3 with GC (2021)
Angular Grid (max. ang.)         AngularGrid ... 1 (Lebedev-50)
Angular grid pruning method      GridPruning ... 4 (adaptive)
Weight generation scheme         WeightScheme... mBecke (2022)
Basis function cutoff            BFCut       ... 1.0000e-11
Integration weight cutoff        WCut        ... 1.0000e-14
Partially contracted basis set               ... on
Rotationally invariant grid construction     ... off
Angular grids for H and He will be reduced by one unit

Total number of grid points                  ...     9902
Total number of batches                      ...       85
Average number of points per batch           ...      116
Average number of grid points per atom       ...      582
UseSFitting                                  ... on

GRIDX 2
-------
General Integration Accuracy     IntAcc      ... 4.020
Radial Grid Type                 RadialGrid  ... OptM3 with GC (2021)
Angular Grid (max. ang.)         AngularGrid ... 2 (Lebedev-110)
Angular grid pruning method      GridPruning ... 4 (adaptive)
Weight generation scheme         WeightScheme... mBecke (2022)
Basis function cutoff            BFCut       ... 1.0000e-11
Integration weight cutoff        WCut        ... 1.0000e-14
Partially contracted basis set               ... on
Rotationally invariant grid construction     ... off
Angular grids for H and He will be reduced by one unit

Total number of grid points                  ...    21200
Total number of batches                      ...      174
Average number of points per batch           ...      121
Average number of grid points per atom       ...     1247
UseSFitting                                  ... on

GRIDX 3
-------
General Integration Accuracy     IntAcc      ... 4.338
Radial Grid Type                 RadialGrid  ... OptM3 with GC (2021)
Angular Grid (max. ang.)         AngularGrid ... 3 (Lebedev-194)
Angular grid pruning method      GridPruning ... 4 (adaptive)
Weight generation scheme         WeightScheme... mBecke (2022)
Basis function cutoff            BFCut       ... 1.0000e-11
Integration weight cutoff        WCut        ... 1.0000e-14
Partially contracted basis set               ... on
Rotationally invariant grid construction     ... off
Angular grids for H and He will be reduced by one unit

Total number of grid points                  ...    46552
Total number of batches                      ...      374
Average number of points per batch           ...      124
Average number of grid points per atom       ...     2738
UseSFitting                                  ... on
Initializing property integral containers    ... done (  0.0 sec)

SHARK setup successfully completed in   0.8 seconds

Maximum memory used throughout the entire STARTUP-calculation: 19.4 MB


           ************************************************************
           *        Program running with 20 parallel MPI-processes    *
           *              working on a common directory               *
           ************************************************************
-------------------------------------------------------------------------------
                                 ORCA GUESS
                   Start orbitals & Density for SCF / CASSCF
-------------------------------------------------------------------------------

------------
SCF SETTINGS
------------
Hamiltonian:
 Density Functional     Method          .... DFT(GTOs)
 Exchange Functional    Exchange        .... B88
   X-Alpha parameter    XAlpha          ....  0.666667
   Becke's b parameter  XBeta           ....  0.004200
 Correlation Functional Correlation     .... LYP
 LDA part of GGA corr.  LDAOpt          .... VWN-5
 Gradients option       PostSCFGGA      .... off
 Hybrid DFT is turned on
   Fraction HF Exchange ScalHFX         ....  0.200000
   Scaling of DF-GGA-X  ScalDFX         ....  0.720000
   Scaling of DF-GGA-C  ScalDFC         ....  0.810000
   Scaling of DF-LDA-C  ScalLDAC        ....  1.000000
   Perturbative correction              ....  0.000000
   NL short-range parameter             ....  4.800000
 RI-approximation to the Coulomb term is turned on
   Number of AuxJ basis functions       .... 491
   RIJ-COSX (HFX calculated with COS-X)).... on


General Settings:
 Integral files         IntName         .... p_toluidine_3
 Hartree-Fock type      HFTyp           .... RHF
 Total Charge           Charge          ....    0
 Multiplicity           Mult            ....    1
 Number of Electrons    NEL             ....   58
 Basis Dimension        Dim             ....  157
 Nuclear Repulsion      ENuc            ....    341.5129012214 Eh

Convergence Acceleration:
 AO-DIIS                CNVDIIS         .... on
   Start iteration      DIISMaxIt       ....    12
   Startup error        DIISStart       ....  0.200000
   # of expansion vecs  DIISMaxEq       ....     5
   Bias factor          DIISBfac        ....   1.050
   Max. coefficient     DIISMaxC        ....  10.000
 MO-DIIS                CNVKDIIS        .... off
 Trust-Rad. Augm. Hess. CNVTRAH         .... auto
   Auto Start mean grad. ratio tolernc. ....  1.125000
   Auto Start start iteration           ....    50
   Auto Start num. interpolation iter.  ....    10
   Max. Number of Micro iterations      ....    24
   Max. Number of Macro iterations      .... Maxiter - #DIIS iter
   Number of Davidson start vectors     ....     2
   Converg. threshold    (grad. norm)   ....   1.000e-05
   Grad. Scal. Fac. for Micro threshold ....   0.100
   Minimum threshold for Micro iter.    ....   1.000e-02
   NR start threshold (gradient norm)   ....   1.000e-04
   Initial trust radius                 ....   0.400
   Minimum AH scaling param. (alpha)    ....   1.000
   Maximum AH scaling param. (alpha)    .... 1000.000
   Quad. conv. algorithm                .... NR
   White noise on init. David. guess    .... on
   Maximum white noise                  ....   0.010
   Pseudo random numbers                .... off
   Inactive MOs                         .... canonical
   Orbital update algorithm             .... Taylor
   Preconditioner                       .... Diag
   Full preconditioner red. dimension   ....   250
 SOSCF                  CNVSOSCF        .... on
   Start iteration      SOSCFMaxIt      ....   150
   Startup grad/error   SOSCFStart      ....  0.003300
   Hessian update       SOSCFHessUp     .... L-BFGS
 Level Shifting         CNVShift        .... on
   Level shift para.    LevelShift      ....    0.2500
   Turn off err/grad.   ShiftErr        ....    0.0010
 Zerner damping         CNVZerner       .... off
 Static damping         CNVDamp         .... on
   Fraction old density DampFac         ....    0.7000
   Max. Damping (<1)    DampMax         ....    0.9800
   Min. Damping (>=0)   DampMin         ....    0.0000
   Turn off err/grad.   DampErr         ....    0.1000

SCF Procedure:
 Maximum # iterations   MaxIter         ....   125
 SCF integral mode      SCFMode         .... Direct
   Integral package                     .... SHARK and LIBINT hybrid scheme
 Reset frequency        DirectResetFreq ....    20
 Integral Threshold     Thresh          ....  2.500e-11 Eh
 Primitive CutOff       TCut            ....  2.500e-12 Eh

Convergence Tolerance:
 Convergence Check Mode ConvCheckMode   .... Total+1el-Energy
 Convergence forced     ConvForced      .... 0
 Energy Change          TolE            ....  1.000e-08 Eh
 1-El. energy change                    ....  1.000e-05 Eh
 Orbital Gradient       TolG            ....  1.000e-05
 Orbital Rotation angle TolX            ....  1.000e-05
 DIIS Error             TolErr          ....  5.000e-07

------------------------------
INITIAL GUESS: MODEL POTENTIAL
------------------------------
Loading Hartree-Fock densities                     ... done
Calculating cut-offs                               ... done
Initializing the effective Hamiltonian             ... done
Setting up the integral package (SHARK)            ... done
Starting the Coulomb interaction                   ... done (   0.0 sec)
Making the grid                                    ... done (   0.1 sec)
Mapping shells                                     ... done
Starting the XC term evaluation                    ... done (   0.0 sec)
  promolecular density results
     # of electrons  =     57.996877499
     EX              =    -45.233752979
     EC              =     -1.914796686
     EX+EC           =    -47.148549664
Transforming the Hamiltonian                       ... done (   0.0 sec)
Diagonalizing the Hamiltonian                      ... done (   0.0 sec)
Back transforming the eigenvectors                 ... done (   0.0 sec)
Now organizing SCF variables                       ... done
                      ------------------
                      INITIAL GUESS DONE (   0.1 sec)
                      ------------------
             **** ENERGY FILE WAS UPDATED (p_toluidine_3.en.tmp) ****
Finished Guess after   0.7 sec
Maximum memory used throughout the entire GUESS-calculation: 11.2 MB


           ************************************************************
           *        Program running with 20 parallel MPI-processes    *
           *              working on a common directory               *
           ************************************************************

-------------------------------------------------------------------------------------------
                                      ORCA LEAN-SCF
                              memory conserving SCF solver
-------------------------------------------------------------------------------------------

----------------------------------------D-I-I-S--------------------------------------------
Iteration    Energy (Eh)           Delta-E    RMSDP     MaxDP     DIISErr   Damp  Time(sec)
-------------------------------------------------------------------------------------------
               ***  Starting incremental Fock matrix formation  ***
    1    -326.2419163098026615     0.00e+00  4.08e-03  8.04e-02  2.35e-01  0.700   0.4
    2    -326.3483431628323501    -1.06e-01  2.85e-03  4.82e-02  1.16e-01  0.700   0.3
                               ***Turning on AO-DIIS***
    3    -326.3939256687963848    -4.56e-02  1.23e-03  1.68e-02  4.21e-02  0.700   0.3
    4    -326.4199552954137857    -2.60e-02  2.28e-03  3.50e-02  2.42e-02  0.000   0.3
    5    -326.4755873478626995    -5.56e-02  3.21e-04  4.82e-03  5.17e-03  0.000   0.3
                              *** Initializing SOSCF ***
---------------------------------------S-O-S-C-F--------------------------------------
Iteration    Energy (Eh)           Delta-E    RMSDP     MaxDP     MaxGrad    Time(sec)
--------------------------------------------------------------------------------------
    6    -326.4758906733690651    -3.03e-04  1.31e-04  2.07e-03  2.38e-03     0.3
               *** Restarting incremental Fock matrix formation ***
    7    -326.4758129726212132     7.77e-05  8.53e-05  1.21e-03  3.07e-04     0.3
    8    -326.4758114881583992     1.48e-06  3.36e-05  7.34e-04  5.12e-04     0.3
    9    -326.4758159787609770    -4.49e-06  1.92e-05  3.10e-04  1.03e-04     0.3
   10    -326.4758158393424878     1.39e-07  1.04e-05  1.55e-04  1.10e-04     0.3
   11    -326.4758161716579821    -3.32e-07  2.67e-06  9.78e-05  1.62e-05     0.3
   12    -326.4758161698477466     1.81e-09  1.59e-06  5.52e-05  2.13e-05     0.3
                 **** Energy Check signals convergence ****

               *****************************************************
               *                     SUCCESS                       *
               *           SCF CONVERGED AFTER  12 CYCLES          *
               *****************************************************

Recomputing exchange energy using gridx3       ... done (    0.312 sec)
Old exchange energy                            :     -9.204751926 Eh
New exchange energy                            :     -9.204753079 Eh
Exchange energy change after final integration :     -0.000001153 Eh
Total energy after final integration           :   -326.475817323 Eh
             **** ENERGY FILE WAS UPDATED (p_toluidine_3.en.tmp) ****

----------------
TOTAL SCF ENERGY
----------------

Total Energy       :       -326.47581732277706 Eh           -8883.85864 eV

Components:
Nuclear Repulsion  :        341.51290122144036 Eh            9293.03849 eV
Electronic Energy  :       -667.98871739128811 Eh          -18176.89710 eV
One Electron Energy:      -1116.48896596838472 Eh          -30381.20931 eV
Two Electron Energy:        448.50024857709661 Eh           12204.31222 eV

Virial components:
Potential Energy   :       -649.35307570670420 Eh          -17669.79551 eV
Kinetic Energy     :        322.87725838392714 Eh            8785.93687 eV
Virial Ratio       :          2.01114528461020

DFT components:
N(Alpha)           :       28.999999949047 electrons
N(Beta)            :       28.999999949047 electrons
N(Total)           :       57.999999898093 electrons
E(X)               :      -36.532751807966 Eh       
E(C)               :       -2.267142846914 Eh       
E(XC)              :      -38.799894654880 Eh       

---------------
SCF CONVERGENCE
---------------

  Last Energy change         ...   -1.8102e-09  Tolerance :   1.0000e-08
  Last MAX-Density change    ...    5.5228e-05  Tolerance :   1.0000e-07
  Last RMS-Density change    ...    1.5938e-06  Tolerance :   5.0000e-09
  Last DIIS Error            ...    2.3838e-03  Tolerance :   5.0000e-07
  Last Orbital Gradient      ...    2.1307e-05  Tolerance :   1.0000e-05
  Last Orbital Rotation      ...    2.8522e-05  Tolerance :   1.0000e-05


----------------
ORBITAL ENERGIES
----------------

  NO   OCC          E(Eh)            E(eV) 
   0   2.0000     -14.327629      -389.8746 
   1   2.0000     -10.217615      -278.0354 
   2   2.0000     -10.172871      -276.8179 
   3   2.0000     -10.172433      -276.8060 
   4   2.0000     -10.172417      -276.8055 
   5   2.0000     -10.169352      -276.7221 
   6   2.0000     -10.169329      -276.7215 
   7   2.0000     -10.169123      -276.7159 
   8   2.0000      -0.901043       -24.5186 
   9   2.0000      -0.819737       -22.3062 
  10   2.0000      -0.735519       -20.0145 
  11   2.0000      -0.721549       -19.6344 
  12   2.0000      -0.656282       -17.8583 
  13   2.0000      -0.597785       -16.2666 
  14   2.0000      -0.569306       -15.4916 
  15   2.0000      -0.513349       -13.9689 
  16   2.0000      -0.511304       -13.9133 
  17   2.0000      -0.448494       -12.2041 
  18   2.0000      -0.432825       -11.7778 
  19   2.0000      -0.414938       -11.2910 
  20   2.0000      -0.404029       -10.9942 
  21   2.0000      -0.403456       -10.9786 
  22   2.0000      -0.368606       -10.0303 
  23   2.0000      -0.368552       -10.0288 
  24   2.0000      -0.343850        -9.3566 
  25   2.0000      -0.324821        -8.8388 
  26   2.0000      -0.292409        -7.9569 
  27   2.0000      -0.239868        -6.5271 
  28   2.0000      -0.185953        -5.0600 
  29   0.0000       0.006462         0.1758 
  30   0.0000       0.026919         0.7325 
  31   0.0000       0.057370         1.5611 
  32   0.0000       0.076818         2.0903 
  33   0.0000       0.089425         2.4334 
  34   0.0000       0.098090         2.6692 
  35   0.0000       0.124036         3.3752 
  36   0.0000       0.136028         3.7015 
  37   0.0000       0.152883         4.1602 
  38   0.0000       0.158837         4.3222 
  39   0.0000       0.172740         4.7005 
*Only the first 10 virtual orbitals were printed.

                    ********************************
                    * MULLIKEN POPULATION ANALYSIS *
                    ********************************

-----------------------
MULLIKEN ATOMIC CHARGES
-----------------------
   0 N :   -0.082575
   1 C :   -0.039589
   2 C :    0.092374
   3 C :   -0.017876
   4 C :   -0.017877
   5 C :   -0.033380
   6 C :   -0.033368
   7 C :    0.082045
   8 H :   -0.040874
   9 H :   -0.040883
  10 H :   -0.054445
  11 H :   -0.054421
  12 H :    0.005661
  13 H :    0.005421
  14 H :    0.021194
  15 H :    0.104295
  16 H :    0.104297
Sum of atomic charges:    0.0000000

--------------------------------
MULLIKEN REDUCED ORBITAL CHARGES
--------------------------------
  0 N s       :     3.275073  s :     3.275073
      pz      :     1.774154  p :     3.792533
      px      :     1.042058
      py      :     0.976322
      dz2     :     0.001766  d :     0.014969
      dxz     :     0.002551
      dyz     :     0.000030
      dx2y2   :     0.004202
      dxy     :     0.006419

  1 C s       :     3.049714  s :     3.049714
      pz      :     1.030276  p :     2.947661
      px      :     0.949550
      py      :     0.967835
      dz2     :     0.003002  d :     0.042214
      dxz     :     0.006121
      dyz     :     0.005906
      dx2y2   :     0.013138
      dxy     :     0.014048

  2 C s       :     2.969251  s :     2.969251
      pz      :     0.948335  p :     2.876440
      px      :     0.889854
      py      :     1.038251
      dz2     :     0.004365  d :     0.061935
      dxz     :     0.016726
      dyz     :     0.006525
      dx2y2   :     0.019214
      dxy     :     0.015104

  3 C s       :     3.220845  s :     3.220845
      pz      :     0.990262  p :     2.761459
      px      :     0.898850
      py      :     0.872348
      dz2     :     0.002572  d :     0.035572
      dxz     :     0.006677
      dyz     :     0.003393
      dx2y2   :     0.010972
      dxy     :     0.011958

  4 C s       :     3.220950  s :     3.220950
      pz      :     0.990187  p :     2.761358
      px      :     0.898950
      py      :     0.872221
      dz2     :     0.002572  d :     0.035568
      dxz     :     0.006675
      dyz     :     0.003393
      dx2y2   :     0.010970
      dxy     :     0.011957

  5 C s       :     3.223054  s :     3.223054
      pz      :     1.079594  p :     2.777764
      px      :     0.877229
      py      :     0.820941
      dz2     :     0.002633  d :     0.032562
      dxz     :     0.005286
      dyz     :     0.002913
      dx2y2   :     0.009296
      dxy     :     0.012434

  6 C s       :     3.223018  s :     3.223018
      pz      :     1.079539  p :     2.777786
      px      :     0.877196
      py      :     0.821051
      dz2     :     0.002632  d :     0.032564
      dxz     :     0.005287
      dyz     :     0.002913
      dx2y2   :     0.009296
      dxy     :     0.012436

  7 C s       :     2.933290  s :     2.933290
      pz      :     1.002016  p :     2.955882
      px      :     0.968989
      py      :     0.984876
      dz2     :     0.005651  d :     0.028783
      dxz     :     0.006512
      dyz     :     0.004380
      dx2y2   :     0.006927
      dxy     :     0.005313

  8 H s       :     1.018148  s :     1.018148
      pz      :     0.004777  p :     0.022727
      px      :     0.006107
      py      :     0.011843

  9 H s       :     1.018157  s :     1.018157
      pz      :     0.004777  p :     0.022727
      px      :     0.006106
      py      :     0.011844

 10 H s       :     1.031485  s :     1.031485
      pz      :     0.005414  p :     0.022960
      px      :     0.005768
      py      :     0.011778

 11 H s       :     1.031461  s :     1.031461
      pz      :     0.005413  p :     0.022959
      px      :     0.005768
      py      :     0.011778

 12 H s       :     0.971220  s :     0.971220
      pz      :     0.007123  p :     0.023119
      px      :     0.005308
      py      :     0.010688

 13 H s       :     0.971464  s :     0.971464
      pz      :     0.007051  p :     0.023115
      px      :     0.005305
      py      :     0.010758

 14 H s       :     0.955427  s :     0.955427
      pz      :     0.012778  p :     0.023379
      px      :     0.005277
      py      :     0.005324

 15 H s       :     0.850423  s :     0.850423
      pz      :     0.013813  p :     0.045282
      px      :     0.011635
      py      :     0.019834

 16 H s       :     0.850422  s :     0.850422
      pz      :     0.013812  p :     0.045281
      px      :     0.011636
      py      :     0.019833



                     *******************************
                     * LOEWDIN POPULATION ANALYSIS *
                     *******************************

----------------------
LOEWDIN ATOMIC CHARGES
----------------------
   0 N :   -0.026548
   1 C :   -0.063523
   2 C :    0.025375
   3 C :   -0.020747
   4 C :   -0.020697
   5 C :   -0.072888
   6 C :   -0.072829
   7 C :   -0.046646
   8 H :    0.021321
   9 H :    0.021327
  10 H :    0.017293
  11 H :    0.017295
  12 H :    0.025789
  13 H :    0.025735
  14 H :    0.029782
  15 H :    0.069979
  16 H :    0.069981

-------------------------------
LOEWDIN REDUCED ORBITAL CHARGES
-------------------------------
  0 N s       :     3.015598  s :     3.015598
      pz      :     1.696366  p :     3.969788
      px      :     1.135559
      py      :     1.137863
      dz2     :     0.002839  d :     0.041163
      dxz     :     0.004941
      dyz     :     0.000035
      dx2y2   :     0.013507
      dxy     :     0.019841

  1 C s       :     2.851687  s :     2.851687
      pz      :     1.005549  p :     3.106414
      px      :     1.026936
      py      :     1.073929
      dz2     :     0.007190  d :     0.105422
      dxz     :     0.010805
      dyz     :     0.012580
      dx2y2   :     0.036687
      dxy     :     0.038160

  2 C s       :     2.833391  s :     2.833391
      pz      :     0.941909  p :     2.993153
      px      :     0.954571
      py      :     1.096673
      dz2     :     0.009512  d :     0.148081
      dxz     :     0.035280
      dyz     :     0.013476
      dx2y2   :     0.050223
      dxy     :     0.039590

  3 C s       :     2.860772  s :     2.860772
      pz      :     0.974892  p :     3.067570
      px      :     1.054226
      py      :     1.038452
      dz2     :     0.006120  d :     0.092405
      dxz     :     0.014277
      dyz     :     0.006654
      dx2y2   :     0.031426
      dxy     :     0.033928

  4 C s       :     2.860767  s :     2.860767
      pz      :     0.974848  p :     3.067531
      px      :     1.054221
      py      :     1.038462
      dz2     :     0.006120  d :     0.092399
      dxz     :     0.014273
      dyz     :     0.006652
      dx2y2   :     0.031425
      dxy     :     0.033929

  5 C s       :     2.858536  s :     2.858536
      pz      :     1.055154  p :     3.127624
      px      :     1.053326
      py      :     1.019144
      dz2     :     0.006295  d :     0.086729
      dxz     :     0.011123
      dyz     :     0.005418
      dx2y2   :     0.028405
      dxy     :     0.035488

  6 C s       :     2.858540  s :     2.858540
      pz      :     1.055074  p :     3.127556
      px      :     1.053344
      py      :     1.019138
      dz2     :     0.006295  d :     0.086733
      dxz     :     0.011125
      dyz     :     0.005417
      dx2y2   :     0.028404
      dxy     :     0.035492

  7 C s       :     2.835208  s :     2.835208
      pz      :     1.063423  p :     3.137928
      px      :     1.017283
      py      :     1.057222
      dz2     :     0.014628  d :     0.073510
      dxz     :     0.015365
      dyz     :     0.011467
      dx2y2   :     0.018822
      dxy     :     0.013228

  8 H s       :     0.912765  s :     0.912765
      pz      :     0.014239  p :     0.065914
      px      :     0.017660
      py      :     0.034015

  9 H s       :     0.912761  s :     0.912761
      pz      :     0.014237  p :     0.065912
      px      :     0.017660
      py      :     0.034016

 10 H s       :     0.915024  s :     0.915024
      pz      :     0.016583  p :     0.067683
      px      :     0.017221
      py      :     0.033879

 11 H s       :     0.915023  s :     0.915023
      pz      :     0.016581  p :     0.067681
      px      :     0.017221
      py      :     0.033880

 12 H s       :     0.910591  s :     0.910591
      pz      :     0.018111  p :     0.063619
      px      :     0.015820
      py      :     0.029688

 13 H s       :     0.910650  s :     0.910650
      pz      :     0.017897  p :     0.063614
      px      :     0.015814
      py      :     0.029902

 14 H s       :     0.906517  s :     0.906517
      pz      :     0.036007  p :     0.063700
      px      :     0.015629
      py      :     0.012064

 15 H s       :     0.805770  s :     0.805770
      pz      :     0.043997  p :     0.124251
      px      :     0.028295
      py      :     0.051959

 16 H s       :     0.805769  s :     0.805769
      pz      :     0.043996  p :     0.124250
      px      :     0.028298
      py      :     0.051956



                      *****************************
                      * MAYER POPULATION ANALYSIS *
                      *****************************

  NA   - Mulliken gross atomic population
  ZA   - Total nuclear charge
  QA   - Mulliken gross atomic charge
  VA   - Mayer's total valence
  BVA  - Mayer's bonded valence
  FA   - Mayer's free valence

  ATOM       NA         ZA         QA         VA         BVA        FA
  0 N      7.0826     7.0000    -0.0826     3.1895     3.1895     0.0000
  1 C      6.0396     6.0000    -0.0396     3.9477     3.9477     0.0000
  2 C      5.9076     6.0000     0.0924     4.0395     4.0395     0.0000
  3 C      6.0179     6.0000    -0.0179     3.8825     3.8825     0.0000
  4 C      6.0179     6.0000    -0.0179     3.8825     3.8825     0.0000
  5 C      6.0334     6.0000    -0.0334     3.7782     3.7782     0.0000
  6 C      6.0334     6.0000    -0.0334     3.7783     3.7783     0.0000
  7 C      5.9180     6.0000     0.0820     3.9060     3.9060     0.0000
  8 H      1.0409     1.0000    -0.0409     0.9831     0.9831    -0.0000
  9 H      1.0409     1.0000    -0.0409     0.9831     0.9831     0.0000
 10 H      1.0544     1.0000    -0.0544     0.9830     0.9830     0.0000
 11 H      1.0544     1.0000    -0.0544     0.9830     0.9830    -0.0000
 12 H      0.9943     1.0000     0.0057     0.9918     0.9918     0.0000
 13 H      0.9946     1.0000     0.0054     0.9919     0.9919     0.0000
 14 H      0.9788     1.0000     0.0212     0.9837     0.9837     0.0000
 15 H      0.8957     1.0000     0.1043     1.0034     1.0034     0.0000
 16 H      0.8957     1.0000     0.1043     1.0034     1.0034     0.0000

  Mayer bond orders larger than 0.100000
B(  0-N ,  2-C ) :   1.2347 B(  0-N , 15-H ) :   0.9509 B(  0-N , 16-H ) :   0.9509 
B(  1-C ,  3-C ) :   1.3784 B(  1-C ,  4-C ) :   1.3780 B(  1-C ,  7-C ) :   1.0652 
B(  2-C ,  5-C ) :   1.3159 B(  2-C ,  6-C ) :   1.3157 B(  3-C ,  5-C ) :   1.3930 
B(  3-C ,  8-H ) :   0.9798 B(  4-C ,  6-C ) :   1.3934 B(  4-C ,  9-H ) :   0.9799 
B(  5-C , 10-H ) :   0.9835 B(  6-C , 11-H ) :   0.9835 B(  7-C , 12-H ) :   0.9582 
B(  7-C , 13-H ) :   0.9582 B(  7-C , 14-H ) :   0.9532 

Environment variable NBOEXE for nbo6.exe or nbo5.exe not set! Skipping NBO-Analysis

-------------------------
CHELPG CHARGES GENERATION
-------------------------
Grid spacing                       ...     0.300000
Point Cut-Off                      ...     2.800000
Van-der-Waals Radii                ...        COSMO
Total charge                       ...            0
Dipole moment constraint           ...        FALSE


Number of points X direction       ...           40
Number of points Y direction       ...           33
Number of points Z direction       ...           23
Maximum number of possible points  ...        30360
Final number of points             ...        11281


Grid generated                     ...   0.0 sec
Potential calculated               ...   0.1 sec
RespFile stored                    ... ok
Charges calculated                 ...   0.0 sec
CHELPG Charges            
--------------------------------
  0   N   :      -0.840703
  1   C   :       0.250949
  2   C   :       0.423929
  3   C   :      -0.250624
  4   C   :      -0.250844
  5   C   :      -0.287771
  6   C   :      -0.286165
  7   C   :      -0.362989
  8   H   :       0.148098
  9   H   :       0.148082
 10   H   :       0.146330
 11   H   :       0.145699
 12   H   :       0.092126
 13   H   :       0.092307
 14   H   :       0.099220
 15   H   :       0.366086
 16   H   :       0.366273
--------------------------------
Total charge:    -0.000000
--------------------------------

CHELPG charges calculated...

Timings:
Grid generation                 ...        0.001 sec (=   0.000 min)
Potential calculation           ...        0.054 sec (=   0.001 min)
Fit to the potential            ...        0.012 sec (=   0.000 min)
------------------------------------------------------------------------------

-------
TIMINGS
-------

Total SCF time: 0 days 0 hours 0 min 4 sec 

Total time                  ....       4.486 sec
Sum of individual times     ....       4.374 sec  ( 97.5%)

SCF preparation             ....       0.582 sec  ( 13.0%)
Fock matrix formation       ....       3.267 sec  ( 72.8%)
  Startup                   ....       0.052 sec  (  1.6% of F)
  Split-RI-J                ....       0.262 sec  (  8.0% of F)
  Chain of spheres X        ....       1.803 sec  ( 55.2% of F)
  XC integration            ....       1.015 sec  ( 31.1% of F)
    XC Preparation          ....       0.000 sec  (  0.0% of XC)
    Basis function eval.    ....       0.171 sec  ( 16.8% of XC)
    Density eval.           ....       0.069 sec  (  6.8% of XC)
    XC-Functional eval.     ....       0.043 sec  (  4.2% of XC)
    XC-Potential eval.      ....       0.104 sec  ( 10.3% of XC)
Diagonalization             ....       0.000 sec  (  0.0%)
Density matrix formation    ....       0.126 sec  (  2.8%)
Total Energy calculation    ....       0.045 sec  (  1.0%)
Population analysis         ....       0.115 sec  (  2.6%)
Orbital Transformation      ....       0.023 sec  (  0.5%)
Orbital Orthonormalization  ....       0.000 sec  (  0.0%)
DIIS solution               ....       0.138 sec  (  3.1%)
SOSCF solution              ....       0.079 sec  (  1.8%)
Finished LeanSCF after   4.5 sec

Maximum memory used throughout the entire LEANSCF-calculation: 16.5 MB

-------------------------   --------------------
FINAL SINGLE POINT ENERGY      -326.475817322777
-------------------------   --------------------



           ************************************************************
           *        Program running with 20 parallel MPI-processes    *
           *              working on a common directory               *
           ************************************************************

------------------------------------------------------------------------------
                              ORCA PROPERTY CALCULATIONS
------------------------------------------------------------------------------

GBWName                                 ... p_toluidine_3.gbw
Number of atoms                         ...     17
Number of basis functions               ...    157
Max core memory                         ...   5000 MB

Electric properties:
Dipole moment                           ... YES
Quadrupole moment                       ...  NO
Static polarizability (Dipole/Dipole)   ...  NO
Static polarizability (Dipole/Quad.)    ...  NO
Static polarizability (Quad./Quad.)     ...  NO
Static polarizability (Velocity)        ...  NO

Atomic electric properties:
Dipole moment                           ...  NO
Quadrupole moment                       ...  NO
Static polarizability                   ...  NO

Choice of electric origin               ... Center of mass
Position of electric origin             ...    -0.054813     0.000092     0.005876

General magnetic properties:
Magnetizability                         ...  NO

EPR properties:
g-Tensor (aka g-matrix)                 ...  NO
Zero-Field splitting spin-orbit         ...  NO
Zero-field splitting spin-spin          ...  NO
Hyperfine couplings                     ...  NO (   0 nuclei)
Quadrupole couplings                    ...  NO (   0 nuclei)
Contact density                         ...  NO (   0 nuclei)

NMR properties:
Chemical shifts                         ...  NO (   0 nuclei)
Spin-rotation constants                 ...  NO (   0 nuclei)
Spin-spin couplings                     ...  NO (   0 nuclei,    0 pairs)

Choice of magnetic origin               ... GIAO
Position of magnetic origin             ...     0.000000     0.000000     0.000000

Properties with geometric perturbations:
SCF Hessian                             ...  NO
IR spectrum                             ...  NO
VCD spectrum                            ...  NO
X-ray spectroscopy properties:
SCF XES/XAS/RIXS spectra                ...  NO


-------------
DIPOLE MOMENT
-------------

Method             : SCF
Type of density    : Electron Density
Multiplicity       :   1
Irrep              :   0
Energy             :  -326.4758173227770612 Eh
Relativity type    : 
Basis              : AO
                                X                 Y                 Z
Electronic contribution:     -3.934940150      -0.000078007       0.030429242
Nuclear contribution   :      3.199282414       0.000489321      -0.054248280
                        -----------------------------------------
Total Dipole Moment    :     -0.735657736       0.000411314      -0.023819037
                        -----------------------------------------
Magnitude (a.u.)       :      0.736043355
Magnitude (Debye)      :      1.870873527



--------------------
Rotational spectrum 
--------------------
 
Rotational constants in cm-1:             0.181862             0.048197             0.038376 
Rotational constants in MHz :          5452.074712          1444.895170          1150.492300 

Dipole components along the rotational axes: 
x,y,z [a.u.] :     0.735708     0.000431    -0.022226 
x,y,z [Debye]:     1.870020     0.001095    -0.056495 

 

Dipole moment calculation done in   0.0 sec 

Maximum memory used throughout the entire PROP-calculation: 7.5 MB

--------------------------------
SUGGESTED CITATIONS FOR THIS RUN
--------------------------------

Below you find a list of papers that are relevant to this ORCA run
We neither can nor want to force you to cite these papers, but we appreciate if you do
You receive ORCA, which is the product of decades of hard work by many enthusiastic individuals, for free
The only thing we kindly ask in return is that you cite our papers,
We deeply appreciate it, if you show your appreciation for ORCA by not just citing the generic ORCA reference.

Please note that relegating all ORCA citations to the supporting information does *not* help us.
SI sections are not indexed - citations you put there will not count into any citation statistics
But we need these citations in order to attract the funding resources that allow us to do what we are doing

Therefore, if you are a happy ORCA user, please consider citing a few of the papers listed below in the main body of your paper

In addition to the list printed below, the program has created the file p_toluidine_3.bibtex that contains the list in bibtex format
You can import this file easily into all common literature databanks and citation aid programs


List of essential papers. We consider these as the minimum necessary citations

  1. Neese,F.
     Software update: the ORCA program system, version 5.0
     WIRES Comput. Molec. Sci., 2022 12(1)e1606
     doi.org/10.1002/wcms.1606

List of papers to cite with high priority. The work reported in these papers was absolutely
necessary for this run to complete.
Our perspective: the developers of density functionals and basis sets usually get cited in chemistry papers
Good! But without the algorithms to do something with them, the functionals or basis sets would not do anything.
Hence, in our opinion, the algorithm design and method developments papers are equally worthy of getting cited

  1. Neese,F.
     An improvement of the resolution of the identity approximation for the formation of the Coulomb matrix
     J. Comp. Chem., 2003 24(14)1740-1747
     doi.org/10.1002/jcc.10318
  2. Neese,F.; Wennmohs,F.; Hansen,A.; Becker,U.
     Efficient, approximate and parallel Hartree-Fock and hybrid DFT calculations. A 'chain-of-spheres' algorithm for the Hartree-Fock exchange
     Chem. Phys., 2009 356(1-3)98-109
     doi.org/10.1016/j.chemphys.2008.10.036
  3. Helmich-Paris,B.; de Souza,B.; Neese,F.; Izsák,R.
     An improved chain of spheres for exchange algorithm
     J. Chem. Phys., 2021 155 104109
     doi.org/doi: 10.1063/5.0058766.
  4. Neese,F.
     The SHARK Integral Generation and Digestion System
     J. Comp. Chem., 2022  1-16
     doi.org/10.1002/jcc.26942

List of suggested additional citations. These are papers that are important in the 'surrounding' of 
of this run, or papers that preceded the highly important papers. If you like your results we are grateful for a citation.

  1. Izsak,R.; Neese,F.
     An overlap fitted chain of spheres exchange method
     J. Chem. Phys., 2011 135 144105
     doi.org/10.1063/1.3646921
  2. Izsak,R.; Hansen,A.; Neese,F.
     The resolution of identity and chain of spheres approximations for the LPNO-CCSD singles Fock term
     Molec. Phys., 2012 110 2413-2417
     doi.org/10.1080/00268976.2012.687466
  3. Neese,F.
     The ORCA program system
     WIRES Comput. Molec. Sci., 2012 2(1)73-78
     doi.org/10.1002/wcms.81
  4. Izsak,R.; Neese,F.; Klopper,W.
     Robust fitting techniques in the chain of spheres approximation to the Fock exchange: The role of the complementary space
     J. Chem. Phys., 2013 139 
     doi.org/10.1063/1.4819264
  5. Neese,F.
     Software update: the ORCA program system, version 4.0
     WIRES Comput. Molec. Sci., 2018 8(1)1-6
     doi.org/10.1002/wcms.1327
  6. Neese,F.; Wennmohs,F.; Becker,U.; Riplinger,C.
     The ORCA quantum chemistry program package
     J. Chem. Phys., 2020 152 Art. No. L224108
     doi.org/10.1063/5.0004608

List of optional additional citations

  1. Neese,F.
     Approximate second-order SCF convergence for spin unrestricted wavefunctions
     Chem. Phys. Lett., 2000 325(1-3)93-98
     doi.org/10.1016/s0009-2614(00)00662-x

Timings for individual modules:

Sum of individual times          ...        7.460 sec (=   0.124 min)
Startup calculation              ...        1.375 sec (=   0.023 min)  18.4 %
SCF iterations                   ...        5.438 sec (=   0.091 min)  72.9 %
Property calculations            ...        0.647 sec (=   0.011 min)   8.7 %
                             ****ORCA TERMINATED NORMALLY****
TOTAL RUN TIME: 0 days 0 hours 0 minutes 8 seconds 293 msec
