40
 Atoms. Timestep: 200035
3 0.17169 2.05725 -1.80272
3 -4.09357 -1.39903 1.23266
1 1.05035 0.444506 -0.274697
1 -0.305395 -0.008963 0.123537
1 -2.60471 -0.656007 -0.45342
1 -1.33946 -0.192201 -0.812935
1 3.49412 0.268234 0.005916
1 2.187 -0.132062 0.311259
1 1.25772 1.47238 -1.22471
1 -0.586309 -0.30619 1.46633
1 -2.85416 -0.945741 0.902383
1 -3.71693 -0.800485 -1.46975
1 4.67964 -0.392949 0.686038
1 3.66369 1.28446 -0.938877
1 -1.84297 -0.770883 1.85232
1 2.55644 1.87872 -1.54619
1 -4.63815 0.394721 -1.45695
1 4.6667 -1.89288 0.565789
1 -5.92081 0.372055 -1.08833
1 4.6241 -2.74581 1.5929
2 -1.14861 0.030136 -1.86322
2 2.04281 -0.949452 1.02155
2 0.182952 -0.156 2.22669
2 -3.26638 -0.903905 -2.47151
2 -4.29679 -1.71395 -1.26747
2 5.60741 0.003244 0.237321
2 4.70509 -0.115308 1.75487
2 4.66929 1.61904 -1.20833
2 -2.04661 -0.992006 2.90519
2 2.69827 2.67735 -2.28197
2 -4.17593 1.34601 -1.75068
2 4.67321 -2.28492 -0.459296
2 0.470608 2.7632 -2.39045
2 -4.13363 -1.55431 2.18514
2 -6.53208 1.27926 -1.08624
2 -6.40214 -0.556626 -0.765117
2 4.60897 -3.8286 1.43968
2 4.60538 -2.38987 2.62898
4 -3.21468 -2.55158 4.33881
4 -3.9151 -1.61305 4.57339
