LAMMPS data file via write_data, version 2 Aug 2023, timestep = 200031, units = real

40 atoms
4 atom types

-15 15 xlo xhi
-15 15 ylo yhi
-15 15 zlo zhi

Masses

1 15.9994
2 1.00794
3 15.9994
4 15.9994

Atoms # charge

39 4 -0.1840943766401278 1.4017273806483341 4.7001761247419624 -3.3680961944180736 0 0 0
40 4 -0.1947761798965301 1.398528408088142 3.8513713132096585 -4.209730364834055 0 0 0
37 2 0.1323843229189262 4.608969 -3.8286 1.439678 0 0 0
2 3 -0.6489002813393681 -4.093572 -1.399029 1.232661 0 0 0
12 1 -0.1973597100711819 -3.716933 -0.800485 -1.469755 0 0 0
17 1 -0.05731983896901609 -4.63815 0.394721 -1.456949 0 0 0
19 1 -0.2316218860555662 -5.920806 0.372055 -1.088332 0 0 0
24 2 0.117055039581369 -3.266383 -0.903905 -2.471505 0 0 0
25 2 0.1717267675625113 -4.296793 -1.713952 -1.267466 0 0 0
31 2 0.1354659942065757 -4.175928 1.346007 -1.750676 0 0 0
34 2 0.3132840665569899 -4.133634 -1.554311 2.185145 0 0 0
35 2 0.1316143146690817 -6.532081 1.279261 -1.08624 0 0 0
36 2 0.1600781851884447 -6.402135 -0.556626 -0.765117 0 0 0
1 3 -0.6327727808078194 0.17169 2.057246 -1.802725 0 0 0
3 1 -0.0315754318461733 1.050346 0.444506 -0.274697 0 0 0
4 1 0.04984912206005164 -0.305395 -0.008963 0.123537 0 0 0
5 1 -9.709410048970753e-05 -2.604705 -0.656007 -0.45342 0 0 0
6 1 -0.1111076043531216 -1.339462 -0.192201 -0.812935 0 0 0
8 1 -0.1355439699172474 2.187003 -0.132062 0.311259 0 0 0
9 1 0.2663631886960051 1.257724 1.472379 -1.224712 0 0 0
10 1 -0.1111587559650636 -0.586309 -0.30619 1.466332 0 0 0
11 1 0.2661461603161046 -2.854163 -0.945741 0.902383 0 0 0
15 1 -0.1624493079761216 -1.842972 -0.770883 1.852322 0 0 0
16 1 -0.1482275047169311 2.556443 1.878716 -1.546186 0 0 0
21 2 0.1764636001678856 -1.148607 0.030136 -1.86322 0 0 0
22 2 0.1294333762888856 2.04281 -0.949452 1.021547 0 0 0
23 2 0.1205414379206823 0.182952 -0.156 2.226689 0 0 0
29 2 0.1276085100977777 -2.046613 -0.992006 2.905191 0 0 0
30 2 0.1904935737697377 2.698269 2.677347 -2.281971 0 0 0
33 2 0.3873393065894691 0.470608 2.763201 -2.390447 0 0 0
7 1 0.02936297635316783 3.494118 0.268234 0.005916 0 0 0
13 1 -0.235380667316398 4.679642 -0.392949 0.686038 0 0 0
14 1 -0.118673793009793 3.66369 1.284465 -0.938877 0 0 0
18 1 -0.07470021342621946 4.666704 -1.892876 0.565789 0 0 0
20 1 -0.2533137250228892 4.6241 -2.745812 1.592897 0 0 0
26 2 0.1221359961817838 5.607406 0.003244 0.237321 0 0 0
27 2 0.1294588483367257 4.705088 -0.115308 1.754873 0 0 0
28 2 0.1191633785327705 4.669291 1.619038 -1.208331 0 0 0
32 2 0.122799973127298 4.673208 -2.284922 -0.459296 0 0 0
38 2 0.1303049823078127 4.60538 -2.389875 2.628982 0 0 0

Velocities

39 -0.0007013939888275128 -0.0009578961533173624 -0.00014958289245454415
40 0.0005455606722453868 -0.0002518148843815665 -0.0008835218522356011
37 0 0 0
2 0 0 0
12 0 0 0
17 0 0 0
19 0 0 0
24 0 0 0
25 0 0 0
31 0 0 0
34 0 0 0
35 0 0 0
36 0 0 0
1 0 0 0
3 0 0 0
4 0 0 0
5 0 0 0
6 0 0 0
8 0 0 0
9 0 0 0
10 0 0 0
11 0 0 0
15 0 0 0
16 0 0 0
21 0 0 0
22 0 0 0
23 0 0 0
29 0 0 0
30 0 0 0
33 0 0 0
7 0 0 0
13 0 0 0
14 0 0 0
18 0 0 0
20 0 0 0
26 0 0 0
27 0 0 0
28 0 0 0
32 0 0 0
38 0 0 0
