
                                 *****************
                                 * O   R   C   A *
                                 *****************

                                            #,                                       
                                            ###                                      
                                            ####                                     
                                            #####                                    
                                            ######                                   
                                           ########,                                 
                                     ,,################,,,,,                         
                               ,,#################################,,                 
                          ,,##########################################,,             
                       ,#########################################, ''#####,          
                    ,#############################################,,   '####,        
                  ,##################################################,,,,####,       
                ,###########''''           ''''###############################       
              ,#####''   ,,,,##########,,,,          '''####'''          '####       
            ,##' ,,,,###########################,,,                        '##       
           ' ,,###''''                  '''############,,,                           
         ,,##''                                '''############,,,,        ,,,,,,###''
      ,#''                                            '''#######################'''  
     '                                                          ''''####''''         
             ,#######,   #######,   ,#######,      ##                                
            ,#'     '#,  ##    ##  ,#'     '#,    #''#        ,####,   ,####,        
            ##       ##  ##   ,#'  ##            #'  '#       #'       #'  '#        
            ##       ##  #######   ##           ,######,      #####,   #    #        
            '#,     ,#'  ##    ##  '#,     ,#' ,#      #,     #,   #   #,  ,#        
             '#######'   ##     ##  '#######'  #'      '#     '####' # '####'        



                #########################################################
                #                        -***-                          #
                #          Department of theory and spectroscopy        #
                #                                                       #
                #                      Frank Neese                      #
                #                                                       #
                #     Directorship, Architecture, Infrastructure        #
                #                    SHARK, DRIVERS                     #
                #        Core code/Algorithms in most modules           #
                #                                                       #
                #        Max Planck Institute fuer Kohlenforschung      #
                #                Kaiser Wilhelm Platz 1                 #
                #                 D-45470 Muelheim/Ruhr                 #
                #                      Germany                          #
                #                                                       #
                #                  All rights reserved                  #
                #                        -***-                          #
                #########################################################


                         Program Version 6.0.1  -  RELEASE   -


 With contributions from (in alphabetic order):
[Max-Planck-Institut fuer Kohlenforschung]                               
  Daniel Aravena         : Magnetic Suceptibility                        
  Michael Atanasov       : Ab Initio Ligand Field Theory (pilot matlab implementation)
  Alexander A. Auer      : GIAO ZORA, VPT2 properties, NMR spectrum      
  Ute Becker             : All parallelization in ORCA, NUMFREQ, NUMCALC 
  Giovanni Bistoni       : ED, misc. LED, open-shell LED, HFLD           
  Martin Brehm           : Molecular dynamics                            
  Dmytro Bykov           : pre 5.0 version of the SCF Hessian            
  Marcos Casanova-Páez   : Triplet and SCS-CIS(D). UHF-(DLPNO)-IP/EA/STEOM-CCSD. UHF-CVS-IP/STEOM-CCSD   
  Vijay G. Chilkuri      : MRCI spin determinant printing, contributions to CSF-ICE 
  Pauline Colinet        : FMM embedding                                 
  Dipayan Datta          : RHF DLPNO-CCSD density                        
  Achintya Kumar Dutta   : EOM-CC, STEOM-CC                              
  Nicolas Foglia         : Exact transition moments, OPA infrastructure, MCD improvements    
  Dmitry Ganyushin       : Spin-Orbit,Spin-Spin,Magnetic field MRCI      
  Miquel Garcia-Rates    : C-PCM and meta-GGA Hessian, CCSD/C-PCM, Gaussian charge scheme 
  Tiago L. C. Gouveia    : GS-ROHF, GS-ROCIS                             
  Yang Guo               : DLPNO-NEVPT2, F12-NEVPT2, CIM, IAO-localization        
  Andreas Hansen         : Spin unrestricted coupled pair/coupled cluster methods 
  Ingolf Harden          : AUTO-CI MPn and infrastructure                
  Benjamin Helmich-Paris : MC-RPA, TRAH-(SCF,CASSCF), AVAS, COSX integrals, SCF dyn. polar. 
  Lee Huntington         : MR-EOM, pCC                                   
  Robert Izsak           : Overlap fitted RIJCOSX, COSX-SCS-MP3, EOM     
  Riya Kayal             : Wick's Theorem for AUTO-CI, AUTO-CI UHF-CCSDT 
  Emily Kempfer          : AUTO-CI, RHF CISDT and CCSDT                  
  Christian Kollmar      : KDIIS, OOCD, Brueckner-CCSD(T), CCSD density, CASPT2, CASPT2-K, improved NEVPT2 
  Axel Koslowski         : Symmetry handling                             
  Simone Kossmann        : meta-GGA functionals, TD-DFT gradient, OOMP2, (MP2 Hessian; deprecated post 5.0) 
  Lucas Lang             : DCDCAS                                        
  Marvin Lechner         : AUTO-CI (C++ implementation), FIC-MRCC        
  Spencer Leger          : CASSCF response                               
  Dagmar Lenk            : GEPOL surface, SMD, ORCA-2-JSON               
  Dimitrios Liakos       : Extrapolation schemes; Compound Job, initial MDCI parallelization 
  Dimitrios Manganas     : Further ROCIS development; embedding schemes. LFT, Crystal Embedding 
  Dimitrios Pantazis     : SARC Basis sets                               
  Anastasios Papadopoulos: AUTO-CI, single reference methods and gradients 
  Taras Petrenko         : pre 6.0 DFT Hessian and TD-DFT gradient, (ASA, deprecated), ECA, 1-Electron XAS/XES, NRVS 
  Peter Pinski           : DLPNO-MP2, DLPNO-MP2 Gradient                 
  Christoph Reimann      : Effective Core Potentials                     
  Marius Retegan         : Local ZFS, SOC                                
  Christoph Riplinger    : Optimizer, TS searches, QM/MM, DLPNO-CCSD(T), (RO)-DLPNO pert. Triples 
  Michael Roemelt        : Original ROCIS implementation                 
  Masaaki Saitow         : Open-shell DLPNO-CCSD energy and density      
  Barbara Sandhoefer     : DKH picture change effects                    
  Kantharuban Sivalingam : CASSCF convergence/infrastructure, NEVPT2 and variants, FIC-MRCI 
  Bernardo de Souza      : ESD, SOC TD-DFT                               
  Georgi L. Stoychev     : AutoAux, RI-MP2 NMR, DLPNO-MP2 response, X2C  
  Van Anh Tran           : RI-MP2 g-tensors                              
  Willem Van den Heuvel  : Paramagnetic NMR                              
  Zikuan Wang            : NOTCH, Electric field optimization            
  Frank Wennmohs         : Technical directorship and infrastructure     
  Hang Xu                : AUTO-CI-Response properties                   
                                                                         
[FACCTs GmbH]                                                            
  Markus Bursch, Miquel Garcia-Rates, Christoph Riplinger, Bernardo de Souza, Georgi L. Stoychev 
                                                                 
  APM, Basis sets (HGBS, AHGBS, def-TZVP (Ac-Lr), def2-XVPD (La-Lu)), CI-OPT, improved COSX, DLPNO-Multilevel,           
  DOCKER, DRACO, updates on ESD, GOAT, IRC, LR-CPCM, MBIS, meta-GGA TD-DFT gradient, ML-optimized integration grids, 
  MM, NACMEs, nearIR, NEB, NEB-TS, NL-DFT gradient (VV10), 2- and 3-layer-ONIOM, interface openCOSMO-RS, QMMM,   
  Crystal-QMMM, SF, symmetry and pop. for TD-DFT, r2SCAN hybrids, SOLVATOR                                   
                                                                         
[Other institutions]                                                     
  V. Asgeirsson          : NEB                                           
  Christoph Bannwarth    : sTDA-DFT, sTD-DFT, PBEh-3c, B97-3c, D3        
  Sebastian Ehlert       : rSCAN, r2SCAN, r2SCAN-3c, D4, dhf basis sets  
  Marvin Friede          : D4 for Fr, Ra, Ac-Lr                          
  Lars Goerigk           : TD-DFT with DH, B97 family of functionals     
  Stefan Grimme          : VdW corrections, initial TS optimization, DFT functionals, gCP, sTDA/sTD-DF 
  Waldemar Hujo          : DFT-NL                                        
  H. Jonsson             : NEB                                           
  Holger Kruse           : gCP                                           
  Marcel Mueller         : wB97X-3c, vDZP basis set                      
  Hagen Neugebauer       : wr2SCAN                                       
  Tobias Risthaus        : range-separated hybrid DFT                    
  Lukas Wittmann         : regularized MP2, r2SCAN double-hybrids, wr2SCAN        
                                                                         
We gratefully acknowledge several colleagues who have allowed us to      
interface, adapt or use parts of their codes:                            
  Ed Valeev, F. Pavosevic, A. Kumar             : LibInt (2-el integral package), F12 methods 
  Garnet Chan, S. Sharma, J. Yang, R. Olivares  : DMRG                   
  Ulf Ekstrom                                   : XCFun DFT Library      
  Mihaly Kallay                                 : mrcc  (arbitrary order and MRCC methods)
  Frank Weinhold                                : gennbo (NPA and NBO analysis)           
  Simon Mueller                                 : openCOSMO-RS                            
  Christopher J. Cramer and Donald G. Truhlar   : smd solvation model                     
  S Lehtola, MJT Oliveira, MAL Marques          : LibXC Library                           
  Liviu Ungur et al                             : ANISO software                          


 Your calculation uses the libint2 library for the computation of 2-el integrals
 For citations please refer to: http://libint.valeyev.net

 Your ORCA version has been built with support for libXC version: 6.2.2
 For citations please refer to: https://libxc.gitlab.io

 This ORCA versions uses:
   CBLAS   interface :  Fast vector & matrix operations
   LAPACKE interface :  Fast linear algebra routines
   SCALAPACK package :  Parallel linear algebra routines
   Shared memory     :  Shared parallel matrices
   BLAS/LAPACK       :  OpenBLAS 0.3.27  USE64BITINT DYNAMIC_ARCH NO_AFFINITY SkylakeX SINGLE_THREADED
        Core in use  :  SkylakeX
   Copyright (c) 2011-2014, The OpenBLAS Project


NOTE: MaxCore=3500 MB was set to SCF,MP2,MDCI,CIPSI,MRCI and CIS
      => If you want to overwrite this, your respective input block should be placed after the MaxCore statement
Your calculation utilizes the atom-pairwise dispersion correction
with the zero-damping scheme (D30)


XCFun DFT library Copyright 2009-2010 Ulf Ekstrom and contributors.
See http://admol.org/xcfun for more information.
This is free software; see the source code for copying conditions.
There is ABSOLUTELY NO WARRANTY; not even for MERCHANTABILITY or FITNESS FOR A PARTICULAR PURPOSE.
For details see the documentation.
Scientific users of this library should cite U. Ekstrom, L. Visscher, R. Bast, A. J. Thorvaldsen and K. Ruud;
J.Chem.Theor.Comp. 2010, DOI: 10.1021/ct100117s
XCFun Version 0.99 

Warning: RI is on but no J-basis has been assigned. Assigning Def2/J (nothing to worry about!)
================================================================================

----- Orbital basis set information -----
Your calculation utilizes the basis: def2-TZVPP
   F. Weigend and R. Ahlrichs, Phys. Chem. Chem. Phys. 7, 3297 (2005).

----- AuxJ basis set information -----
Your calculation utilizes the auxiliary basis: def2/J
   F. Weigend, Phys. Chem. Chem. Phys. 8, 1057 (2006).

================================================================================
                                        WARNINGS
                       Please study these warnings very carefully!
================================================================================


WARNING: your system is open-shell and RHF/RKS was chosen
  ===> : WILL SWITCH to UHF/UKS


================================================================================
                                       INPUT FILE
================================================================================
NAME = honokiol_o2_SP_9.inp
|  1> ! wB97X-D3 def2-TZVPP TightSCF RIJCOSX SP
|  2> 
|  3> %pal
|  4> nprocs 28
|  5> end
|  6> 
|  7> %maxcore 3500
|  8> 
|  9> 
| 10> * xyz -1 2
| 11>   O           0.23249747250981      1.89811844501955     -1.92388976332606
| 12>   O          -4.11921229071187     -1.44782152929071      1.19225290556566
| 13>   C           1.05390265158646      0.41678913099122     -0.24521481318289
| 14>   C          -0.30343265336730     -0.04847664579520      0.14371780497964
| 15>   C          -2.61672726045460     -0.62581672484244     -0.45321549162166
| 16>   C          -1.34749487044041     -0.16066871744701     -0.79219903904680
| 17>   C           3.48296951168554      0.30194311240709      0.13474281657556
| 18>   C           2.17585530957586     -0.10657242868259      0.40690798163722
| 19>   C           1.22954443687610      1.41027861035309     -1.27432568689071
| 20>   C          -0.59797832526058     -0.41194729436668      1.46458165258213
| 21>   C          -2.87042427393015     -0.99178132183739      0.87646677433692
| 22>   C          -3.73113726723083     -0.68935803160561     -1.47534438054417
| 23>   C           4.66161590547624     -0.31747901020817      0.85985031129720
| 24>   C           3.65023688273431      1.28628001765270     -0.85005876628729
| 25>   C          -1.85863143076536     -0.88424201100922      1.82779452532291
| 26>   C           2.57072469772536      1.82445129321708     -1.52969773977799
| 27>   C          -4.60065311647690      0.53964666828608     -1.42991327965241
| 28>   C           4.82118530350519     -1.78550266321859      0.57531948882351
| 29>   C          -5.89776333362006      0.55392956624520     -1.12460136729104
| 30>   C           4.83393958102357     -2.75774176057325      1.48857045225201
| 31>   H          -1.14520610300088      0.15584181084934     -1.81657151362634
| 32>   H           2.02331474372976     -0.89603363686249      1.15281784147784
| 33>   H           0.16984035097667     -0.30691893750423      2.23561557323586
| 34>   H          -3.28039272667595     -0.77082014075299     -2.47790873930900
| 35>   H          -4.34909774338905     -1.58567772553274     -1.31104685852887
| 36>   H           5.58124580884116      0.20514676932530      0.54226455932975
| 37>   H           4.58222886507423     -0.17005291505949      1.95205265019235
| 38>   H           4.66134046864604      1.63535607028994     -1.09469948315243
| 39>   H          -2.06377353925715     -1.15792296329137      2.86955866529498
| 40>   H           2.70796155442403      2.58972166408747     -2.30079428281441
| 41>   H          -4.08542181242033      1.48405305215390     -1.64775361080742
| 42>   H           4.90566007569239     -2.04893266897802     -0.48722216992818
| 43>   H           0.39045506902551      2.87375512963272     -2.90104612882464
| 44>   H          -4.14442215886424     -1.62684138356280      2.13590621443360
| 45>   H          -6.46820317758744      1.48696310984548     -1.09723471682333
| 46>   H          -6.43236314418918     -0.36891732912388     -0.87539556732407
| 47>   H           4.93526733615335     -3.80993789718210      1.20720452504443
| 48>   H           4.72965443254655     -2.53567614208315      2.55656377050862
| 49>   O           1.62784950455437      3.97554897357793     -3.88741281844717
| 50>   O           0.39611126527968      3.62128445487605     -3.67878129568326
| 51> *
| 52> 
| 53>                          ****END OF INPUT****
================================================================================

                       ****************************
                       * Single Point Calculation *
                       ****************************

---------------------------------
CARTESIAN COORDINATES (ANGSTROEM)
---------------------------------
  O      0.232497    1.898118   -1.923890
  O     -4.119212   -1.447822    1.192253
  C      1.053903    0.416789   -0.245215
  C     -0.303433   -0.048477    0.143718
  C     -2.616727   -0.625817   -0.453215
  C     -1.347495   -0.160669   -0.792199
  C      3.482970    0.301943    0.134743
  C      2.175855   -0.106572    0.406908
  C      1.229544    1.410279   -1.274326
  C     -0.597978   -0.411947    1.464582
  C     -2.870424   -0.991781    0.876467
  C     -3.731137   -0.689358   -1.475344
  C      4.661616   -0.317479    0.859850
  C      3.650237    1.286280   -0.850059
  C     -1.858631   -0.884242    1.827795
  C      2.570725    1.824451   -1.529698
  C     -4.600653    0.539647   -1.429913
  C      4.821185   -1.785503    0.575319
  C     -5.897763    0.553930   -1.124601
  C      4.833940   -2.757742    1.488570
  H     -1.145206    0.155842   -1.816572
  H      2.023315   -0.896034    1.152818
  H      0.169840   -0.306919    2.235616
  H     -3.280393   -0.770820   -2.477909
  H     -4.349098   -1.585678   -1.311047
  H      5.581246    0.205147    0.542265
  H      4.582229   -0.170053    1.952053
  H      4.661340    1.635356   -1.094699
  H     -2.063774   -1.157923    2.869559
  H      2.707962    2.589722   -2.300794
  H     -4.085422    1.484053   -1.647754
  H      4.905660   -2.048933   -0.487222
  H      0.390455    2.873755   -2.901046
  H     -4.144422   -1.626841    2.135906
  H     -6.468203    1.486963   -1.097235
  H     -6.432363   -0.368917   -0.875396
  H      4.935267   -3.809938    1.207205
  H      4.729654   -2.535676    2.556564
  O      1.627850    3.975549   -3.887413
  O      0.396111    3.621284   -3.678781

----------------------------
CARTESIAN COORDINATES (A.U.)
----------------------------
  NO LB      ZA    FRAG     MASS         X           Y           Z
   0 O     8.0000    0    15.999    0.439357    3.586924   -3.635625
   1 O     8.0000    0    15.999   -7.784183   -2.735986    2.253031
   2 C     6.0000    0    12.011    1.991587    0.787617   -0.463389
   3 C     6.0000    0    12.011   -0.573405   -0.091608    0.271587
   4 C     6.0000    0    12.011   -4.944898   -1.182622   -0.856453
   5 C     6.0000    0    12.011   -2.546396   -0.303620   -1.497039
   6 C     6.0000    0    12.011    6.581859    0.570590    0.254627
   7 C     6.0000    0    12.011    4.111771   -0.201393    0.768945
   8 C     6.0000    0    12.011    2.323502    2.665040   -2.408127
   9 C     6.0000    0    12.011   -1.130015   -0.778468    2.767658
  10 C     6.0000    0    12.011   -5.424316   -1.874195    1.656282
  11 C     6.0000    0    12.011   -7.050828   -1.302698   -2.787997
  12 C     6.0000    0    12.011    8.809177   -0.599948    1.624882
  13 C     6.0000    0    12.011    6.897948    2.430717   -1.606378
  14 C     6.0000    0    12.011   -3.512304   -1.670975    3.454031
  15 C     6.0000    0    12.011    4.857966    3.447713   -2.890710
  16 C     6.0000    0    12.011   -8.693974    1.019784   -2.702144
  17 C     6.0000    0    12.011    9.110720   -3.374111    1.087196
  18 C     6.0000    0    12.011  -11.145158    1.046775   -2.125189
  19 C     6.0000    0    12.011    9.134822   -5.211377    2.812990
  20 H     1.0000    0     1.008   -2.164126    0.294498   -3.432823
  21 H     1.0000    0     1.008    3.823511   -1.693258    2.178510
  22 H     1.0000    0     1.008    0.320952   -0.579993    4.224701
  23 H     1.0000    0     1.008   -6.199044   -1.456639   -4.682569
  24 H     1.0000    0     1.008   -8.218604   -2.996497   -2.477520
  25 H     1.0000    0     1.008   10.547026    0.387671    1.024732
  26 H     1.0000    0     1.008    8.659158   -0.321353    3.688845
  27 H     1.0000    0     1.008    8.808657    3.090375   -2.068682
  28 H     1.0000    0     1.008   -3.899967   -2.188157    5.422680
  29 H     1.0000    0     1.008    5.117306    4.893865   -4.347871
  30 H     1.0000    0     1.008   -7.720328    2.804454   -3.113803
  31 H     1.0000    0     1.008    9.270354   -3.871922   -0.920716
  32 H     1.0000    0     1.008    0.737853    5.430610   -5.482183
  33 H     1.0000    0     1.008   -7.831823   -3.074285    4.036278
  34 H     1.0000    0     1.008  -12.223133    2.809953   -2.073473
  35 H     1.0000    0     1.008  -12.155405   -0.697153   -1.654258
  36 H     1.0000    0     1.008    9.326304   -7.199739    2.281286
  37 H     1.0000    0     1.008    8.937752   -4.791733    4.831205
  38 O     8.0000    0    15.999    3.076190    7.512699   -7.346146
  39 O     8.0000    0    15.999    0.748542    6.843236   -6.951889

--------------------------------
INTERNAL COORDINATES (ANGSTROEM)
--------------------------------
 O      0   0   0     0.000000000000     0.00000000     0.00000000
 O      1   0   0     6.312134132597     0.00000000     0.00000000
 C      1   2   0     2.384741619768    63.93986768     0.00000000
 C      3   1   2     1.486640492720    93.67405011   359.01550019
 C      2   1   3     2.375019875880    15.92257344   255.35148017
 C      5   2   1     1.393636743944   149.33749923    45.70936021
 C      3   1   2     2.461284871612   118.52778714   179.86258962
 C      7   3   1     1.396247242340    28.33778271   181.69219370
 C      1   2   3     1.286088582810    94.82229811   359.46313034
 C      4   3   1     1.401267058454   121.31232017   212.51452137
 C      2   1   3     1.366442484098    22.91874225     2.75194006
 C      5   2   1     1.513504088676    89.28693558   227.72895637
 C      7   3   1     1.516137185905   149.32994600   183.27575777
 C      7   3   1     1.402402108546    88.65655983     1.53740105
 C     11   2   1     1.392951524874   122.12427903   149.87048227
 C     14   7   3     1.384515804790   121.63770563   359.50915112
 C     12   5   2     1.506178724247   111.74303442    83.87582162
 C     13   7   3     1.503832978599   113.00581869    62.73464103
 C     17  12   5     1.332634338602   125.27953663   242.71901605
 C     18  13   7     1.333956092315   125.65942139   237.23096064
 H      6   5   2     1.091072237128   119.60666007   181.73667867
 H      8   7   3     1.096767588169   118.25355059   178.43845715
 H     10   4   3     1.093192472588   119.49042331     2.96749278
 H     12   5   2     1.102244078928   108.43729169   203.90498908
 H     12   5   2     1.101025803311   110.28333542   321.68367116
 H     13   7   3     1.104408246279   108.44959479   183.21262158
 H     13   7   3     1.104962761727   111.24605288   299.79325646
 H     14   7   3     1.097284663301   119.32464370   179.93432509
 H     15  11   2     1.096474838585   119.58494454   359.09884391
 H     16  14   7     1.095017156967   121.30611907   180.27040606
 H     17  12   5     1.097643441400   115.15645681    61.18814016
 H     18  13   7     1.097964540253   115.18079538    55.54419644
 H      1   2   3     1.389838877458   142.89656076   182.43488820
 H      2   1   3     0.960814869272   126.99255879    41.94096001
 H     19  17  12     1.093938820331   121.49520863   179.16311793
 H     19  17  12     1.095238275669   121.21156681     0.12385623
 H     20  18  13     1.093869648929   121.72613750   178.80386982
 H     20  18  13     1.095809408131   121.24046960   359.61740033
 O     33   1   2     1.928215213619   146.48075926   178.04106905
 O     33   1   2     1.078751164274   173.68028980   352.54846122

---------------------------
INTERNAL COORDINATES (A.U.)
---------------------------
 O      0   0   0     0.000000000000     0.00000000     0.00000000
 O      1   0   0    11.928204831185     0.00000000     0.00000000
 C      1   2   0     4.506508561525    63.93986768     0.00000000
 C      3   1   2     2.809343390838    93.67405011   359.01550019
 C      2   1   3     4.488137128033    15.92257344   255.35148017
 C      5   2   1     2.633591776223   149.33749923    45.70936021
 C      3   1   2     4.651154344911   118.52778714   179.86258962
 C      7   3   1     2.638524903265    28.33778271   181.69219370
 C      1   2   3     2.430355205474    94.82229811   359.46313034
 C      4   3   1     2.648010980963   121.31232017   212.51452137
 C      2   1   3     2.582202072700    22.91874225     2.75194006
 C      5   2   1     2.860108230167    89.28693558   227.72895637
 C      7   3   1     2.865084062814   149.32994600   183.27575777
 C      7   3   1     2.650155914786    88.65655983     1.53740105
 C     11   2   1     2.632296899840   122.12427903   149.87048227
 C     14   7   3     2.616355699138   121.63770563   359.50915112
 C     12   5   2     2.846265297566   111.74303442    83.87582162
 C     13   7   3     2.841832480712   113.00581869    62.73464103
 C     17  12   5     2.518313936617   125.27953663   242.71901605
 C     18  13   7     2.520811689150   125.65942139   237.23096064
 H      6   5   2     2.061827720496   119.60666007   181.73667867
 H      8   7   3     2.072590374200   118.25355059   178.43845715
 H     10   4   3     2.065834384855   119.49042331     2.96749278
 H     12   5   2     2.082939441911   108.43729169   203.90498908
 H     12   5   2     2.080637234638   110.28333542   321.68367116
 H     13   7   3     2.087029125511   108.44959479   183.21262158
 H     13   7   3     2.088077007845   111.24605288   299.79325646
 H     14   7   3     2.073567504592   119.32464370   179.93432509
 H     15  11   2     2.072037157661   119.58494454   359.09884391
 H     16  14   7     2.069282538612   121.30611907   180.27040606
 H     17  12   5     2.074245496940   115.15645681    61.18814016
 H     18  13   7     2.074852285835   115.18079538    55.54419644
 H      1   2   3     2.626414848673   142.89656076   182.43488820
 H      2   1   3     1.815676968323   126.99255879    41.94096001
 H     19  17  12     2.067244777690   121.49520863   179.16311793
 H     19  17  12     2.069700392402   121.21156681     0.12385623
 H     20  18  13     2.067114062684   121.72613750   178.80386982
 H     20  18  13     2.070779676342   121.24046960   359.61740033
 O     33   1   2     3.643798681000   146.48075926   178.04106905
 O     33   1   2     2.038544267127   173.68028980   352.54846122

---------------------
BASIS SET INFORMATION
---------------------
There are 3 groups of distinct atoms

 Group   1 Type O   : 11s6p2d1f contracted to 5s3p2d1f pattern {62111/411/11/1}
 Group   2 Type C   : 11s6p2d1f contracted to 5s3p2d1f pattern {62111/411/11/1}
 Group   3 Type H   : 5s2p1d contracted to 3s2p1d pattern {311/11/1}

Atom   0O    basis set group =>   1
Atom   1O    basis set group =>   1
Atom   2C    basis set group =>   2
Atom   3C    basis set group =>   2
Atom   4C    basis set group =>   2
Atom   5C    basis set group =>   2
Atom   6C    basis set group =>   2
Atom   7C    basis set group =>   2
Atom   8C    basis set group =>   2
Atom   9C    basis set group =>   2
Atom  10C    basis set group =>   2
Atom  11C    basis set group =>   2
Atom  12C    basis set group =>   2
Atom  13C    basis set group =>   2
Atom  14C    basis set group =>   2
Atom  15C    basis set group =>   2
Atom  16C    basis set group =>   2
Atom  17C    basis set group =>   2
Atom  18C    basis set group =>   2
Atom  19C    basis set group =>   2
Atom  20H    basis set group =>   3
Atom  21H    basis set group =>   3
Atom  22H    basis set group =>   3
Atom  23H    basis set group =>   3
Atom  24H    basis set group =>   3
Atom  25H    basis set group =>   3
Atom  26H    basis set group =>   3
Atom  27H    basis set group =>   3
Atom  28H    basis set group =>   3
Atom  29H    basis set group =>   3
Atom  30H    basis set group =>   3
Atom  31H    basis set group =>   3
Atom  32H    basis set group =>   3
Atom  33H    basis set group =>   3
Atom  34H    basis set group =>   3
Atom  35H    basis set group =>   3
Atom  36H    basis set group =>   3
Atom  37H    basis set group =>   3
Atom  38O    basis set group =>   1
Atom  39O    basis set group =>   1
---------------------------------
AUXILIARY/J BASIS SET INFORMATION
---------------------------------
There are 3 groups of distinct atoms

 Group   1 Type O   : 12s5p4d2f1g contracted to 6s4p3d1f1g pattern {711111/2111/211/2/1}
 Group   2 Type C   : 12s5p4d2f1g contracted to 6s4p3d1f1g pattern {711111/2111/211/2/1}
 Group   3 Type H   : 5s2p1d contracted to 3s1p1d pattern {311/2/1}

Atom   0O    basis set group =>   1
Atom   1O    basis set group =>   1
Atom   2C    basis set group =>   2
Atom   3C    basis set group =>   2
Atom   4C    basis set group =>   2
Atom   5C    basis set group =>   2
Atom   6C    basis set group =>   2
Atom   7C    basis set group =>   2
Atom   8C    basis set group =>   2
Atom   9C    basis set group =>   2
Atom  10C    basis set group =>   2
Atom  11C    basis set group =>   2
Atom  12C    basis set group =>   2
Atom  13C    basis set group =>   2
Atom  14C    basis set group =>   2
Atom  15C    basis set group =>   2
Atom  16C    basis set group =>   2
Atom  17C    basis set group =>   2
Atom  18C    basis set group =>   2
Atom  19C    basis set group =>   2
Atom  20H    basis set group =>   3
Atom  21H    basis set group =>   3
Atom  22H    basis set group =>   3
Atom  23H    basis set group =>   3
Atom  24H    basis set group =>   3
Atom  25H    basis set group =>   3
Atom  26H    basis set group =>   3
Atom  27H    basis set group =>   3
Atom  28H    basis set group =>   3
Atom  29H    basis set group =>   3
Atom  30H    basis set group =>   3
Atom  31H    basis set group =>   3
Atom  32H    basis set group =>   3
Atom  33H    basis set group =>   3
Atom  34H    basis set group =>   3
Atom  35H    basis set group =>   3
Atom  36H    basis set group =>   3
Atom  37H    basis set group =>   3
Atom  38O    basis set group =>   1
Atom  39O    basis set group =>   1


           ************************************************************
           *        Program running with 28 parallel MPI-processes    *
           *              working on a common directory               *
           ************************************************************
------------------------------------------------------------------------------
                             ORCA STARTUP CALCULATIONS
                           -- RI-GTO INTEGRALS CHOSEN --
------------------------------------------------------------------------------
------------------------------------------------------------------------------
                   ___                                                        
                  /   \      - P O W E R E D   B Y -                         
                 /     \                                                     
                 |  |  |   _    _      __       _____    __    __             
                 |  |  |  | |  | |    /  \     |  _  \  |  |  /  |          
                  \  \/   | |  | |   /    \    | | | |  |  | /  /          
                 / \  \   | |__| |  /  /\  \   | |_| |  |  |/  /          
                |  |  |   |  __  | /  /__\  \  |    /   |      \           
                |  |  |   | |  | | |   __   |  |    \   |  |\   \          
                \     /   | |  | | |  |  |  |  | |\  \  |  | \   \       
                 \___/    |_|  |_| |__|  |__|  |_| \__\ |__|  \__/        
                                                                              
                      - O R C A' S   B I G   F R I E N D -                    
                                      &                                       
                       - I N T E G R A L  F E E D E R -                       
                                                                              
 v1 FN, 2020, v2 2021, v3 2022-2024                                           
------------------------------------------------------------------------------


----------------------
SHARK INTEGRAL PACKAGE
----------------------

Number of atoms                             ...     40
Number of basis functions                   ...    934
Number of shells                            ...    350
Maximum angular momentum                    ...      3
Integral batch strategy                     ... SHARK/LIBINT Hybrid
RI-J (if used) integral strategy            ... SPLIT-RIJ (Revised 2003 algorithm where possible)
Printlevel                                  ...      1
Contraction scheme used                     ... SEGMENTED contraction
Prescreening option                         ... SCHWARTZ
   Thresh                                   ... 2.500e-11
   Tcut                                     ... 2.500e-12
   Tpresel                                  ... 2.500e-12 
Coulomb Range Separation                    ... NOT USED
Exchange Range Separation                   ... Long Range
   Mu parameter                             ... 2.500e-01
   Scaling (regular/separated)              ... 1.957e-01 8.043e-01
Multipole approximations                    ... NOT USED
Finite Nucleus Model                        ... NOT USED
CABS basis                                  ... NOT available
Auxiliary Coulomb fitting basis             ... AVAILABLE
   # of basis functions in Aux-J            ...   1276
   # of shells in Aux-J                     ...    420
   Maximum angular momentum in Aux-J        ...      4
Auxiliary J/K fitting basis                 ... NOT available
Auxiliary Correlation fitting basis         ... NOT available
Auxiliary 'external' fitting basis          ... NOT available

Checking pre-screening integrals            ... done (  0.0 sec) Dimension = 350
Check shell pair data                       ... done (  0.0 sec)
Shell pair information
Shell pair cut-off parameter TPreSel        ...   2.5e-12
Total number of shell pairs                 ...     61425
Shell pairs after pre-screening             ...     38073
Total number of primitive shell pairs       ...    171358
Primitive shell pairs kept                  ...     72997
          la=0 lb=0:   8464 shell pairs
          la=1 lb=0:  10940 shell pairs
          la=1 lb=1:   3605 shell pairs
          la=2 lb=0:   5863 shell pairs
          la=2 lb=1:   3854 shell pairs
          la=2 lb=2:   1022 shell pairs
          la=3 lb=0:   2094 shell pairs
          la=3 lb=1:   1384 shell pairs
          la=3 lb=2:    709 shell pairs
          la=3 lb=3:    138 shell pairs

Calculating one electron integrals          ... done (  0.1 sec)
Calculating RI/J V-Matrix + Cholesky decomp.... done (  0.1 sec)
Calculating Nuclear repulsion               ... done (  0.0 sec) ENN=   1648.333630332412 Eh

Diagonalization of the overlap matrix:
Smallest eigenvalue                        ... 6.464e-06
Time for diagonalization                   ...    0.143 sec
Threshold for overlap eigenvalues          ... 1.000e-07
Number of eigenvalues below threshold      ... 0
Time for construction of square roots      ...    0.057 sec
Total time needed                          ...    0.207 sec

-------------------
DFT GRID GENERATION
-------------------

General Integration Accuracy     IntAcc      ... 4.388
Radial Grid Type                 RadialGrid  ... OptM3 with GC (2021)
Angular Grid (max. ang.)         AngularGrid ... 4 (Lebedev-302)
Angular grid pruning method      GridPruning ... 4 (adaptive)
Weight generation scheme         WeightScheme... mBecke (2022)
Basis function cutoff            BFCut       ... 1.0000e-11
Integration weight cutoff        WCut        ... 1.0000e-14
Partially contracted basis set               ... off
Rotationally invariant grid construction     ... off
Angular grids for H and He will be reduced by one unit

Total number of grid points                  ...   189394
Total number of batches                      ...     2981
Average number of points per batch           ...       63
Average number of grid points per atom       ...     4735

--------------------
COSX GRID GENERATION
--------------------

GRIDX 1
-------
General Integration Accuracy     IntAcc      ... 3.816
Radial Grid Type                 RadialGrid  ... OptM3 with GC (2021)
Angular Grid (max. ang.)         AngularGrid ... 1 (Lebedev-50)
Angular grid pruning method      GridPruning ... 4 (adaptive)
Weight generation scheme         WeightScheme... mBecke (2022)
Basis function cutoff            BFCut       ... 1.0000e-11
Integration weight cutoff        WCut        ... 1.0000e-14
Partially contracted basis set               ... on
Rotationally invariant grid construction     ... off
Angular grids for H and He will be reduced by one unit

Total number of grid points                  ...    24039
Total number of batches                      ...      213
Average number of points per batch           ...      112
Average number of grid points per atom       ...      601
UseSFitting                                  ... on

GRIDX 2
-------
General Integration Accuracy     IntAcc      ... 4.020
Radial Grid Type                 RadialGrid  ... OptM3 with GC (2021)
Angular Grid (max. ang.)         AngularGrid ... 2 (Lebedev-110)
Angular grid pruning method      GridPruning ... 4 (adaptive)
Weight generation scheme         WeightScheme... mBecke (2022)
Basis function cutoff            BFCut       ... 1.0000e-11
Integration weight cutoff        WCut        ... 1.0000e-14
Partially contracted basis set               ... on
Rotationally invariant grid construction     ... off
Angular grids for H and He will be reduced by one unit

Total number of grid points                  ...    52238
Total number of batches                      ...      429
Average number of points per batch           ...      121
Average number of grid points per atom       ...     1306
UseSFitting                                  ... on

GRIDX 3
-------
General Integration Accuracy     IntAcc      ... 4.338
Radial Grid Type                 RadialGrid  ... OptM3 with GC (2021)
Angular Grid (max. ang.)         AngularGrid ... 3 (Lebedev-194)
Angular grid pruning method      GridPruning ... 4 (adaptive)
Weight generation scheme         WeightScheme... mBecke (2022)
Basis function cutoff            BFCut       ... 1.0000e-11
Integration weight cutoff        WCut        ... 1.0000e-14
Partially contracted basis set               ... on
Rotationally invariant grid construction     ... off
Angular grids for H and He will be reduced by one unit

Total number of grid points                  ...   114266
Total number of batches                      ...      912
Average number of points per batch           ...      125
Average number of grid points per atom       ...     2857
UseSFitting                                  ... on
Initializing property integral containers    ... done (  0.0 sec)

SHARK setup successfully completed in   2.8 seconds

Maximum memory used throughout the entire STARTUP-calculation: 82.9 MB


           ************************************************************
           *        Program running with 28 parallel MPI-processes    *
           *              working on a common directory               *
           ************************************************************
-------------------------------------------------------------------------------
                                 ORCA GUESS
                   Start orbitals & Density for SCF / CASSCF
-------------------------------------------------------------------------------

------------
SCF SETTINGS
------------
Hamiltonian:
 Density Functional     Method          .... DFT(GTOs)
 Exchange Functional    Exchange        .... WB97X-D3
 Correlation Functional Correlation     .... WB97X-D3
 Gradients option       PostSCFGGA      .... off
 Hybrid DFT is turned on
   Fraction HF Exchange ScalHFX         ....  0.195728
   Scaling of DF-GGA-X  ScalDFX         ....  0.000000
   Scaling of DF-GGA-C  ScalDFC         ....  1.000000
   Scaling of DF-LDA-C  ScalLDAC        ....  1.000000
   Perturbative correction              ....  0.000000
 Long-range corrected/Screened/Range-Separated Hybrid DFT is turned on
   Amount of maximum screened exact exchange              ....  0.804272
   Range separation parameter mu (erf(mu*r12)/r12)        ....  0.250000
 RI-approximation to the Coulomb term is turned on
   Number of AuxJ basis functions       .... 1276
   RIJ-COSX (HFX calculated with COS-X)).... on


General Settings:
 Integral files         IntName         .... honokiol_o2_SP_9
 Hartree-Fock type      HFTyp           .... UHF
 Total Charge           Charge          ....   -1
 Multiplicity           Mult            ....    2
 Number of Electrons    NEL             ....  159
 Basis Dimension        Dim             ....  934
 Nuclear Repulsion      ENuc            ....   1648.3336303324 Eh

Convergence Acceleration:
 AO-DIIS                CNVDIIS         .... on
   Start iteration      DIISMaxIt       ....    12
   Startup error        DIISStart       ....  0.200000
   # of expansion vecs  DIISMaxEq       ....     5
   Bias factor          DIISBfac        ....   1.050
   Max. coefficient     DIISMaxC        ....  10.000
 MO-DIIS                CNVKDIIS        .... off
 Trust-Rad. Augm. Hess. CNVTRAH         .... auto
   Auto Start mean grad. ratio tolernc. ....  1.125000
   Auto Start start iteration           ....    50
   Auto Start num. interpolation iter.  ....    10
   Max. Number of Micro iterations      ....    24
   Max. Number of Macro iterations      .... Maxiter - #DIIS iter
   Number of Davidson start vectors     ....     2
   Converg. threshold    (grad. norm)   ....   1.000e-05
   Grad. Scal. Fac. for Micro threshold ....   0.100
   Minimum threshold for Micro iter.    ....   1.000e-02
   NR start threshold (gradient norm)   ....   1.000e-04
   Initial trust radius                 ....   0.400
   Minimum AH scaling param. (alpha)    ....   1.000
   Maximum AH scaling param. (alpha)    .... 1000.000
   Quad. conv. algorithm                .... NR
   White noise on init. David. guess    .... on
   Maximum white noise                  ....   0.010
   Pseudo random numbers                .... off
   Inactive MOs                         .... canonical
   Orbital update algorithm             .... Taylor
   Preconditioner                       .... Diag
   Full preconditioner red. dimension   ....   250
 SOSCF                  CNVSOSCF        .... on
   Start iteration      SOSCFMaxIt      ....   150
   Startup grad/error   SOSCFStart      ....  0.003300
   Hessian update       SOSCFHessUp     .... L-BFGS
 Level Shifting         CNVShift        .... on
   Level shift para.    LevelShift      ....    0.2500
   Turn off err/grad.   ShiftErr        ....    0.0010
 Zerner damping         CNVZerner       .... off
 Static damping         CNVDamp         .... on
   Fraction old density DampFac         ....    0.7000
   Max. Damping (<1)    DampMax         ....    0.9800
   Min. Damping (>=0)   DampMin         ....    0.0000
   Turn off err/grad.   DampErr         ....    0.1000

SCF Procedure:
 Maximum # iterations   MaxIter         ....   125
 SCF integral mode      SCFMode         .... Direct
   Integral package                     .... SHARK and LIBINT hybrid scheme
 Reset frequency        DirectResetFreq ....    20
 Integral Threshold     Thresh          ....  2.500e-11 Eh
 Primitive CutOff       TCut            ....  2.500e-12 Eh

Convergence Tolerance:
 Convergence Check Mode ConvCheckMode   .... Total+1el-Energy
 Convergence forced     ConvForced      .... 0
 Energy Change          TolE            ....  1.000e-08 Eh
 1-El. energy change                    ....  1.000e-05 Eh
 Orbital Gradient       TolG            ....  1.000e-05
 Orbital Rotation angle TolX            ....  1.000e-05
 DIIS Error             TolErr          ....  5.000e-07

------------------------------
INITIAL GUESS: MODEL POTENTIAL
------------------------------
Loading Hartree-Fock densities                     ... done
Calculating cut-offs                               ... done
Initializing the effective Hamiltonian             ... done
Setting up the integral package (SHARK)            ... done
Starting the Coulomb interaction                   ... done (   0.2 sec)
Making the grid                                    ... done (   0.2 sec)
Mapping shells                                     ... done
Starting the XC term evaluation                    ... done (   0.1 sec)
  promolecular density results
     # of electrons  =    157.992653426
     EX              =   -129.855120664
     EC              =     -5.258713759
     EX+EC           =   -135.113834423
Transforming the Hamiltonian                       ... done (   0.1 sec)
Diagonalizing the Hamiltonian                      ... done (   0.2 sec)
Back transforming the eigenvectors                 ... done (   0.0 sec)
Now organizing SCF variables                       ... done
                      ------------------
                      INITIAL GUESS DONE (   0.9 sec)
                      ------------------
             **** ENERGY FILE WAS UPDATED (honokiol_o2_SP_9.en.tmp) ****
Finished Guess after   2.1 sec
Maximum memory used throughout the entire GUESS-calculation: 71.5 MB


           ************************************************************
           *        Program running with 28 parallel MPI-processes    *
           *              working on a common directory               *
           ************************************************************

-------------------------------------------------------------------------------------------
                                      ORCA LEAN-SCF
                              memory conserving SCF solver
-------------------------------------------------------------------------------------------

----------------------------------------D-I-I-S--------------------------------------------
Iteration    Energy (Eh)           Delta-E    RMSDP     MaxDP     DIISErr   Damp  Time(sec)
-------------------------------------------------------------------------------------------
               ***  Starting incremental Fock matrix formation  ***
    1    -997.0700003372473930     0.00e+00  4.89e-04  5.21e-02  1.27e-01  0.700   8.4
    2    -997.2946152219794840    -2.25e-01  4.64e-04  5.57e-02  6.21e-02  0.700   5.2
                               ***Turning on AO-DIIS***
    3    -997.4140831933148093    -1.19e-01  2.21e-04  2.02e-02  2.96e-02  0.700   4.5
    4    -997.4858560058567036    -7.18e-02  4.72e-04  4.04e-02  1.97e-02  0.000   4.4
                              *** Initializing SOSCF ***
---------------------------------------S-O-S-C-F--------------------------------------
Iteration    Energy (Eh)           Delta-E    RMSDP     MaxDP     MaxGrad    Time(sec)
--------------------------------------------------------------------------------------
    5    -997.6407808076967285    -1.55e-01  6.59e-05  4.82e-03  2.78e-03     5.2
               *** Restarting incremental Fock matrix formation ***
    6    -997.6412789894463913    -4.98e-04  8.80e-05  8.51e-03  3.16e-03     8.0
    7    -997.6414434117416477    -1.64e-04  5.00e-05  3.89e-03  1.93e-03     6.3
    8    -997.6415706079021675    -1.27e-04  2.35e-05  1.86e-03  4.87e-04     6.2
    9    -997.6415789121508624    -8.30e-06  1.60e-05  1.05e-03  5.59e-04     5.8
   10    -997.6415834059237113    -4.49e-06  8.65e-06  5.23e-04  1.14e-04     5.6
   11    -997.6415838181790150    -4.12e-07  4.57e-06  2.67e-04  1.29e-04     5.3
   12    -997.6415840064635177    -1.88e-07  1.92e-06  1.10e-04  2.50e-05     5.1
   13    -997.6415840341767307    -2.77e-08  1.31e-06  1.16e-04  1.34e-05     4.6
   14    -997.6415840205784207     1.36e-08  9.17e-07  1.02e-04  1.21e-05     4.3
   15    -997.6415840386027867    -1.80e-08  1.13e-06  1.12e-04  1.07e-05     3.9
   16    -997.6415840649808615    -2.64e-08  1.13e-06  8.43e-05  8.16e-06     4.0
   17    -997.6415840632546406     1.73e-09  7.54e-07  8.03e-05  4.37e-06     4.1
                 **** Energy Check signals convergence ****

               *****************************************************
               *                     SUCCESS                       *
               *           SCF CONVERGED AFTER  17 CYCLES          *
               *****************************************************

Recomputing exchange energy using gridx3       ... done (   12.655 sec)
Old exchange energy                            :    -43.005118927 Eh
New exchange energy                            :    -43.005118257 Eh
Exchange energy change after final integration :      0.000000670 Eh
Total energy after final integration           :   -997.641583393 Eh
             **** ENERGY FILE WAS UPDATED (honokiol_o2_SP_9.en.tmp) ****

----------------
TOTAL SCF ENERGY
----------------

Total Energy       :       -997.64158339345011 Eh          -27147.20762 eV

Components:
Nuclear Repulsion  :       1648.33363033241199 Eh           44853.43839 eV
Electronic Energy  :      -2645.97521439566663 Eh          -72000.64603 eV
One Electron Energy:      -4651.29491417313693 Eh         -126568.16922 eV
Two Electron Energy:       2005.31969977747030 Eh           54567.52319 eV

Virial components:
Potential Energy   :      -1990.54557734639275 Eh          -54165.49888 eV
Kinetic Energy     :        992.90399395294276 Eh           27018.29126 eV
Virial Ratio       :          2.00477144766197

DFT components:
N(Alpha)           :       79.999974155448 electrons
N(Beta)            :       78.999975429580 electrons
N(Total)           :      158.999949585028 electrons
E(XC)              :      -95.733181295662 Eh       

---------------
SCF CONVERGENCE
---------------

  Last Energy change         ...   -1.7262e-09  Tolerance :   1.0000e-08
  Last MAX-Density change    ...    8.0312e-05  Tolerance :   1.0000e-07
  Last RMS-Density change    ...    7.5398e-07  Tolerance :   5.0000e-09
  Last DIIS Error            ...    2.7797e-03  Tolerance :   5.0000e-07
  Last Orbital Gradient      ...    4.3677e-06  Tolerance :   1.0000e-05
  Last Orbital Rotation      ...    1.0237e-04  Tolerance :   1.0000e-05


----------------------
UHF SPIN CONTAMINATION
----------------------

Warning: in a DFT calculation there is little theoretical justification to 
         calculate <S**2> as in Hartree-Fock theory. We will do it anyways
         but you should keep in mind that the values have only limited relevance

Expectation value of <S**2>     :     0.754495
Ideal value S*(S+1) for S=0.5   :     0.750000
Deviation                       :     0.004495

----------------
ORBITAL ENERGIES
----------------
                 SPIN UP ORBITALS
  NO   OCC          E(Eh)            E(eV) 
   0   1.0000     -19.172373      -521.7068 
   1   1.0000     -19.149763      -521.0915 
   2   1.0000     -19.128246      -520.5060 
   3   1.0000     -19.038383      -518.0607 
   4   1.0000     -10.238227      -278.5963 
   5   1.0000     -10.194568      -277.4083 
   6   1.0000     -10.194142      -277.3967 
   7   1.0000     -10.193380      -277.3760 
   8   1.0000     -10.189578      -277.2725 
   9   1.0000     -10.182873      -277.0901 
  10   1.0000     -10.182412      -277.0775 
  11   1.0000     -10.182186      -277.0714 
  12   1.0000     -10.181799      -277.0608 
  13   1.0000     -10.180765      -277.0327 
  14   1.0000     -10.175521      -276.8900 
  15   1.0000     -10.172810      -276.8162 
  16   1.0000     -10.164402      -276.5875 
  17   1.0000     -10.152096      -276.2526 
  18   1.0000     -10.151621      -276.2396 
  19   1.0000     -10.149959      -276.1944 
  20   1.0000     -10.146563      -276.1020 
  21   1.0000     -10.125956      -275.5413 
  22   1.0000      -1.134112       -30.8608 
  23   1.0000      -1.089854       -29.6564 
  24   1.0000      -0.970197       -26.4004 
  25   1.0000      -0.872437       -23.7402 
  26   1.0000      -0.843349       -22.9487 
  27   1.0000      -0.824873       -22.4459 
  28   1.0000      -0.806816       -21.9546 
  29   1.0000      -0.778052       -21.1719 
  30   1.0000      -0.771946       -21.0057 
  31   1.0000      -0.763389       -20.7729 
  32   1.0000      -0.730000       -19.8643 
  33   1.0000      -0.713745       -19.4220 
  34   1.0000      -0.694583       -18.9006 
  35   1.0000      -0.662349       -18.0234 
  36   1.0000      -0.634165       -17.2565 
  37   1.0000      -0.608707       -16.5638 
  38   1.0000      -0.576874       -15.6975 
  39   1.0000      -0.572667       -15.5831 
  40   1.0000      -0.560274       -15.2458 
  41   1.0000      -0.551804       -15.0154 
  42   1.0000      -0.542568       -14.7640 
  43   1.0000      -0.496028       -13.4976 
  44   1.0000      -0.493920       -13.4402 
  45   1.0000      -0.483122       -13.1464 
  46   1.0000      -0.471694       -12.8355 
  47   1.0000      -0.463850       -12.6220 
  48   1.0000      -0.444801       -12.1037 
  49   1.0000      -0.443957       -12.0807 
  50   1.0000      -0.436088       -11.8665 
  51   1.0000      -0.435520       -11.8511 
  52   1.0000      -0.423226       -11.5166 
  53   1.0000      -0.418284       -11.3821 
  54   1.0000      -0.415618       -11.3095 
  55   1.0000      -0.410361       -11.1665 
  56   1.0000      -0.404407       -11.0045 
  57   1.0000      -0.402763       -10.9597 
  58   1.0000      -0.387229       -10.5370 
  59   1.0000      -0.381099       -10.3702 
  60   1.0000      -0.376509       -10.2453 
  61   1.0000      -0.366031        -9.9602 
  62   1.0000      -0.362208        -9.8562 
  63   1.0000      -0.354910        -9.6576 
  64   1.0000      -0.349697        -9.5158 
  65   1.0000      -0.348389        -9.4802 
  66   1.0000      -0.330364        -8.9897 
  67   1.0000      -0.328603        -8.9417 
  68   1.0000      -0.317038        -8.6270 
  69   1.0000      -0.306394        -8.3374 
  70   1.0000      -0.281627        -7.6635 
  71   1.0000      -0.263171        -7.1613 
  72   1.0000      -0.260772        -7.0960 
  73   1.0000      -0.234826        -6.3899 
  74   1.0000      -0.230073        -6.2606 
  75   1.0000      -0.224002        -6.0954 
  76   1.0000      -0.212221        -5.7748 
  77   1.0000      -0.184029        -5.0077 
  78   1.0000      -0.181547        -4.9402 
  79   1.0000      -0.133091        -3.6216 
  80   0.0000       0.157289         4.2801 
  81   0.0000       0.161532         4.3955 
  82   0.0000       0.176447         4.8014 
  83   0.0000       0.185797         5.0558 
  84   0.0000       0.190229         5.1764 
  85   0.0000       0.204672         5.5694 
  86   0.0000       0.221738         6.0338 
  87   0.0000       0.229386         6.2419 
  88   0.0000       0.230958         6.2847 
  89   0.0000       0.237368         6.4591 
  90   0.0000       0.244203         6.6451 

                 SPIN DOWN ORBITALS
  NO   OCC          E(Eh)            E(eV) 
   0   1.0000     -19.172373      -521.7068 
   1   1.0000     -19.140622      -520.8428 
   2   1.0000     -19.113423      -520.1027 
   3   1.0000     -19.038444      -518.0624 
   4   1.0000     -10.238226      -278.5963 
   5   1.0000     -10.194569      -277.4083 
   6   1.0000     -10.194142      -277.3967 
   7   1.0000     -10.193390      -277.3762 
   8   1.0000     -10.189578      -277.2725 
   9   1.0000     -10.182874      -277.0901 
  10   1.0000     -10.182412      -277.0775 
  11   1.0000     -10.182186      -277.0714 
  12   1.0000     -10.181800      -277.0609 
  13   1.0000     -10.180767      -277.0327 
  14   1.0000     -10.175519      -276.8900 
  15   1.0000     -10.172812      -276.8163 
  16   1.0000     -10.164401      -276.5874 
  17   1.0000     -10.152101      -276.2527 
  18   1.0000     -10.151624      -276.2397 
  19   1.0000     -10.149951      -276.1942 
  20   1.0000     -10.146556      -276.1018 
  21   1.0000     -10.125970      -275.5417 
  22   1.0000      -1.104236       -30.0478 
  23   1.0000      -1.089852       -29.6564 
  24   1.0000      -0.970029       -26.3958 
  25   1.0000      -0.872428       -23.7400 
  26   1.0000      -0.843303       -22.9474 
  27   1.0000      -0.824868       -22.4458 
  28   1.0000      -0.806624       -21.9494 
  29   1.0000      -0.772070       -21.0091 
  30   1.0000      -0.763624       -20.7793 
  31   1.0000      -0.737434       -20.0666 
  32   1.0000      -0.727670       -19.8009 
  33   1.0000      -0.713747       -19.4220 
  34   1.0000      -0.694571       -18.9002 
  35   1.0000      -0.662016       -18.0144 
  36   1.0000      -0.634122       -17.2553 
  37   1.0000      -0.608705       -16.5637 
  38   1.0000      -0.576757       -15.6944 
  39   1.0000      -0.572626       -15.5819 
  40   1.0000      -0.560052       -15.2398 
  41   1.0000      -0.551592       -15.0096 
  42   1.0000      -0.542540       -14.7633 
  43   1.0000      -0.495834       -13.4923 
  44   1.0000      -0.485013       -13.1979 
  45   1.0000      -0.483105       -13.1459 
  46   1.0000      -0.471022       -12.8172 
  47   1.0000      -0.463788       -12.6203 
  48   1.0000      -0.444601       -12.0982 
  49   1.0000      -0.441967       -12.0265 
  50   1.0000      -0.435991       -11.8639 
  51   1.0000      -0.435359       -11.8467 
  52   1.0000      -0.417829       -11.3697 
  53   1.0000      -0.415361       -11.3025 
  54   1.0000      -0.408665       -11.1203 
  55   1.0000      -0.402789       -10.9604 
  56   1.0000      -0.389784       -10.6066 
  57   1.0000      -0.385577       -10.4921 
  58   1.0000      -0.380104       -10.3432 
  59   1.0000      -0.376302       -10.2397 
  60   1.0000      -0.365644        -9.9497 
  61   1.0000      -0.362436        -9.8624 
  62   1.0000      -0.354824        -9.6553 
  63   1.0000      -0.349608        -9.5133 
  64   1.0000      -0.348841        -9.4924 
  65   1.0000      -0.334660        -9.1066 
  66   1.0000      -0.329005        -8.9527 
  67   1.0000      -0.327890        -8.9223 
  68   1.0000      -0.316583        -8.6147 
  69   1.0000      -0.306269        -8.3340 
  70   1.0000      -0.280981        -7.6459 
  71   1.0000      -0.263166        -7.1611 
  72   1.0000      -0.260688        -7.0937 
  73   1.0000      -0.234618        -6.3843 
  74   1.0000      -0.228648        -6.2218 
  75   1.0000      -0.218710        -5.9514 
  76   1.0000      -0.183857        -5.0030 
  77   1.0000      -0.169358        -4.6085 
  78   1.0000      -0.133384        -3.6296 
  79   0.0000       0.151154         4.1131 
  80   0.0000       0.157480         4.2853 
  81   0.0000       0.161938         4.4066 
  82   0.0000       0.176456         4.8016 
  83   0.0000       0.185799         5.0559 
  84   0.0000       0.190230         5.1764 
  85   0.0000       0.204724         5.5708 
  86   0.0000       0.221754         6.0342 
  87   0.0000       0.229434         6.2432 
  88   0.0000       0.231031         6.2867 
  89   0.0000       0.237397         6.4599 
*Only the first 10 virtual orbitals were printed.

                    ********************************
                    * MULLIKEN POPULATION ANALYSIS *
                    ********************************

--------------------------------------------
MULLIKEN ATOMIC CHARGES AND SPIN POPULATIONS
--------------------------------------------
   0 O :   -0.570666   -0.000937
   1 O :   -0.319844    0.000016
   2 C :    0.003624    0.000851
   3 C :    0.081654   -0.000324
   4 C :   -0.052398   -0.000200
   5 C :   -0.081570    0.000356
   6 C :   -0.031964    0.000783
   7 C :   -0.163523   -0.000388
   8 C :    0.204352   -0.000611
   9 C :   -0.201406    0.000175
  10 C :    0.229191    0.000164
  11 C :   -0.087262   -0.000008
  12 C :   -0.106343   -0.000032
  13 C :   -0.112914    0.000028
  14 C :   -0.169352   -0.000110
  15 C :   -0.237511    0.000650
  16 C :   -0.130725    0.000006
  17 C :   -0.104274   -0.000009
  18 C :   -0.227375   -0.000002
  19 C :   -0.241941    0.000027
  20 H :    0.104578   -0.000071
  21 H :    0.079896   -0.000022
  22 H :    0.099308   -0.000018
  23 H :    0.085226   -0.000001
  24 H :    0.072028   -0.000002
  25 H :    0.067249   -0.000004
  26 H :    0.070300    0.000036
  27 H :    0.072302    0.000008
  28 H :    0.059498   -0.000000
  29 H :    0.117367   -0.003396
  30 H :    0.121394   -0.000005
  31 H :    0.101144    0.000006
  32 H :    0.251736   -0.004765
  33 H :    0.170101   -0.000000
  34 H :    0.087208    0.000000
  35 H :    0.069096    0.000000
  36 H :    0.084393    0.000000
  37 H :    0.066926   -0.000001
  38 O :   -0.282943    0.651669
  39 O :   -0.176560    0.356131
Sum of atomic charges         :   -1.0000000
Sum of atomic spin populations:    1.0000000

-----------------------------------------------------
MULLIKEN REDUCED ORBITAL CHARGES AND SPIN POPULATIONS
-----------------------------------------------------
CHARGE
  0 O s       :     3.834364  s :     3.834364
      pz      :     1.550503  p :     4.708688
      px      :     1.544080
      py      :     1.614105
      dz2     :     0.003768  d :     0.026071
      dxz     :     0.007262
      dyz     :     0.002950
      dx2y2   :     0.005802
      dxy     :     0.006289
      f0      :     0.000142  f :     0.001543
      f+1     :     0.000297
      f-1     :     0.000124
      f+2     :     0.000275
      f-2     :     0.000299
      f+3     :     0.000201
      f-3     :     0.000204

  1 O s       :     3.752840  s :     3.752840
      pz      :     1.314505  p :     4.538387
      px      :     1.473924
      py      :     1.749958
      dz2     :     0.007716  d :     0.027405
      dxz     :     0.004738
      dyz     :     0.001551
      dx2y2   :     0.007033
      dxy     :     0.006366
      f0      :     0.000131  f :     0.001212
      f+1     :     0.000087
      f-1     :     0.000079
      f+2     :     0.000156
      f-2     :     0.000133
      f+3     :     0.000291
      f-3     :     0.000335

  2 C s       :     3.289264  s :     3.289264
      pz      :     0.949795  p :     2.578939
      px      :     0.714713
      py      :     0.914431
      dz2     :     0.021861  d :     0.118717
      dxz     :     0.028562
      dyz     :     0.014678
      dx2y2   :     0.026344
      dxy     :     0.027272
      f0      :     0.000915  f :     0.009456
      f+1     :     0.001465
      f-1     :     0.001233
      f+2     :     0.001562
      f-2     :     0.001588
      f+3     :     0.001627
      f-3     :     0.001065

  3 C s       :     3.270558  s :     3.270558
      pz      :     0.862734  p :     2.486749
      px      :     0.726845
      py      :     0.897169
      dz2     :     0.036469  d :     0.151178
      dxz     :     0.048786
      dyz     :     0.023154
      dx2y2   :     0.018966
      dxy     :     0.023803
      f0      :     0.001659  f :     0.009861
      f+1     :     0.002134
      f-1     :     0.001149
      f+2     :     0.001273
      f-2     :     0.001334
      f+3     :     0.001148
      f-3     :     0.001163

  4 C s       :     3.234230  s :     3.234230
      pz      :     0.813284  p :     2.675767
      px      :     0.865840
      py      :     0.996644
      dz2     :     0.037522  d :     0.132631
      dxz     :     0.033796
      dyz     :     0.020693
      dx2y2   :     0.019867
      dxy     :     0.020753
      f0      :     0.001696  f :     0.009770
      f+1     :     0.002092
      f-1     :     0.001142
      f+2     :     0.001341
      f-2     :     0.001139
      f+3     :     0.001344
      f-3     :     0.001016

  5 C s       :     3.105987  s :     3.105987
      pz      :     1.049901  p :     2.865732
      px      :     0.888424
      py      :     0.927407
      dz2     :     0.026892  d :     0.102289
      dxz     :     0.026424
      dyz     :     0.011013
      dx2y2   :     0.016973
      dxy     :     0.020986
      f0      :     0.000920  f :     0.007562
      f+1     :     0.001431
      f-1     :     0.000441
      f+2     :     0.000947
      f-2     :     0.001200
      f+3     :     0.001473
      f-3     :     0.001149

  6 C s       :     3.211576  s :     3.211576
      pz      :     0.901787  p :     2.667696
      px      :     0.814325
      py      :     0.951584
      dz2     :     0.025894  d :     0.143122
      dxz     :     0.035367
      dyz     :     0.014612
      dx2y2   :     0.034335
      dxy     :     0.032914
      f0      :     0.001140  f :     0.009570
      f+1     :     0.001134
      f-1     :     0.001263
      f+2     :     0.001506
      f-2     :     0.001615
      f+3     :     0.001746
      f-3     :     0.001166

  7 C s       :     3.085158  s :     3.085158
      pz      :     1.013647  p :     2.959930
      px      :     0.928322
      py      :     1.017960
      dz2     :     0.012091  d :     0.110660
      dxz     :     0.029761
      dyz     :     0.013331
      dx2y2   :     0.027870
      dxy     :     0.027607
      f0      :     0.000613  f :     0.007776
      f+1     :     0.001482
      f-1     :     0.000641
      f+2     :     0.001348
      f-2     :     0.000836
      f+3     :     0.001830
      f-3     :     0.001027

  8 C s       :     3.083279  s :     3.083279
      pz      :     0.822568  p :     2.485088
      px      :     0.808604
      py      :     0.853916
      dz2     :     0.049935  d :     0.210231
      dxz     :     0.035552
      dyz     :     0.025660
      dx2y2   :     0.055843
      dxy     :     0.043239
      f0      :     0.001408  f :     0.017051
      f+1     :     0.003276
      f-1     :     0.001547
      f+2     :     0.002717
      f-2     :     0.002742
      f+3     :     0.003281
      f-3     :     0.002080

  9 C s       :     3.169468  s :     3.169468
      pz      :     0.967888  p :     2.921493
      px      :     0.987576
      py      :     0.966029
      dz2     :     0.020231  d :     0.102932
      dxz     :     0.038970
      dyz     :     0.016113
      dx2y2   :     0.013720
      dxy     :     0.013898
      f0      :     0.001244  f :     0.007512
      f+1     :     0.001517
      f-1     :     0.000994
      f+2     :     0.000959
      f-2     :     0.000698
      f+3     :     0.001283
      f-3     :     0.000817

 10 C s       :     3.067360  s :     3.067360
      pz      :     0.901631  p :     2.520318
      px      :     0.711391
      py      :     0.907296
      dz2     :     0.033719  d :     0.167587
      dxz     :     0.044655
      dyz     :     0.028428
      dx2y2   :     0.028204
      dxy     :     0.032581
      f0      :     0.002014  f :     0.015545
      f+1     :     0.003427
      f-1     :     0.001498
      f+2     :     0.001657
      f-2     :     0.001999
      f+3     :     0.002757
      f-3     :     0.002193

 11 C s       :     3.169247  s :     3.169247
      pz      :     0.964742  p :     2.816049
      px      :     0.921830
      py      :     0.929477
      dz2     :     0.021685  d :     0.097077
      dxz     :     0.018583
      dyz     :     0.013058
      dx2y2   :     0.016788
      dxy     :     0.026963
      f0      :     0.000672  f :     0.004889
      f+1     :     0.000963
      f-1     :     0.000261
      f+2     :     0.000277
      f-2     :     0.000929
      f+3     :     0.000838
      f-3     :     0.000949

 12 C s       :     3.182891  s :     3.182891
      pz      :     1.001876  p :     2.818922
      px      :     0.951030
      py      :     0.866017
      dz2     :     0.029131  d :     0.099623
      dxz     :     0.008342
      dyz     :     0.014823
      dx2y2   :     0.018621
      dxy     :     0.028707
      f0      :     0.000664  f :     0.004906
      f+1     :     0.000622
      f-1     :     0.000554
      f+2     :     0.000797
      f-2     :     0.000304
      f+3     :     0.001084
      f-3     :     0.000882

 13 C s       :     3.124237  s :     3.124237
      pz      :     0.937439  p :     2.869407
      px      :     1.003463
      py      :     0.928504
      dz2     :     0.030808  d :     0.111726
      dxz     :     0.019052
      dyz     :     0.011547
      dx2y2   :     0.026940
      dxy     :     0.023378
      f0      :     0.000774  f :     0.007544
      f+1     :     0.001186
      f-1     :     0.001196
      f+2     :     0.001109
      f-2     :     0.001422
      f+3     :     0.001122
      f-3     :     0.000736

 14 C s       :     3.148519  s :     3.148519
      pz      :     0.933085  p :     2.926904
      px      :     0.924001
      py      :     1.069819
      dz2     :     0.018239  d :     0.086591
      dxz     :     0.025716
      dyz     :     0.009670
      dx2y2   :     0.013413
      dxy     :     0.019553
      f0      :     0.000904  f :     0.007337
      f+1     :     0.001352
      f-1     :     0.000523
      f+2     :     0.000896
      f-2     :     0.001214
      f+3     :     0.001385
      f-3     :     0.001063

 15 C s       :     3.196590  s :     3.196590
      pz      :     1.018665  p :     2.949121
      px      :     0.888976
      py      :     1.041480
      dz2     :     0.011523  d :     0.084677
      dxz     :     0.021559
      dyz     :     0.011059
      dx2y2   :     0.018447
      dxy     :     0.022090
      f0      :     0.000551  f :     0.007122
      f+1     :     0.001223
      f-1     :     0.000717
      f+2     :     0.001337
      f-2     :     0.000800
      f+3     :     0.001465
      f-3     :     0.001029

 16 C s       :     3.214823  s :     3.214823
      pz      :     0.915543  p :     2.804319
      px      :     0.930835
      py      :     0.957941
      dz2     :     0.005564  d :     0.104873
      dxz     :     0.021966
      dyz     :     0.009090
      dx2y2   :     0.027324
      dxy     :     0.040930
      f0      :     0.000953  f :     0.006710
      f+1     :     0.001019
      f-1     :     0.000512
      f+2     :     0.000636
      f-2     :     0.000730
      f+3     :     0.000792
      f-3     :     0.002068

 17 C s       :     3.192222  s :     3.192222
      pz      :     0.982530  p :     2.796971
      px      :     0.903520
      py      :     0.910920
      dz2     :     0.035073  d :     0.108362
      dxz     :     0.008701
      dyz     :     0.026243
      dx2y2   :     0.013777
      dxy     :     0.024567
      f0      :     0.001028  f :     0.006719
      f+1     :     0.000366
      f-1     :     0.001292
      f+2     :     0.000855
      f-2     :     0.000890
      f+3     :     0.001410
      f-3     :     0.000878

 18 C s       :     3.181124  s :     3.181124
      pz      :     1.021511  p :     2.977019
      px      :     0.945697
      py      :     1.009811
      dz2     :     0.005008  d :     0.064848
      dxz     :     0.011076
      dyz     :     0.002486
      dx2y2   :     0.009445
      dxy     :     0.036833
      f0      :     0.000652  f :     0.004383
      f+1     :     0.000881
      f-1     :     0.000396
      f+2     :     0.000546
      f-2     :     0.000254
      f+3     :     0.000415
      f-3     :     0.001239

 19 C s       :     3.183269  s :     3.183269
      pz      :     0.962962  p :     2.989307
      px      :     1.041613
      py      :     0.984731
      dz2     :     0.030948  d :     0.064996
      dxz     :     0.006103
      dyz     :     0.009048
      dx2y2   :     0.012178
      dxy     :     0.006719
      f0      :     0.000714  f :     0.004370
      f+1     :     0.000316
      f-1     :     0.000890
      f+2     :     0.000393
      f-2     :     0.000757
      f+3     :     0.000680
      f-3     :     0.000619

 20 H s       :     0.846801  s :     0.846801
      pz      :     0.020349  p :     0.046299
      px      :     0.012211
      py      :     0.013739
      dz2     :     0.000710  d :     0.002321
      dxz     :     0.000787
      dyz     :     0.000515
      dx2y2   :     0.000126
      dxy     :     0.000183

 21 H s       :     0.877099  s :     0.877099
      pz      :     0.015085  p :     0.040806
      px      :     0.011043
      py      :     0.014678
      dz2     :     0.000524  d :     0.002198
      dxz     :     0.000463
      dyz     :     0.000361
      dx2y2   :     0.000330
      dxy     :     0.000520

 22 H s       :     0.859757  s :     0.859757
      pz      :     0.013524  p :     0.038836
      px      :     0.014248
      py      :     0.011063
      dz2     :     0.000725  d :     0.002100
      dxz     :     0.000391
      dyz     :     0.000329
      dx2y2   :     0.000289
      dxy     :     0.000365

 23 H s       :     0.875075  s :     0.875075
      pz      :     0.016428  p :     0.037540
      px      :     0.011198
      py      :     0.009914
      dz2     :     0.000671  d :     0.002159
      dxz     :     0.000599
      dyz     :     0.000587
      dx2y2   :     0.000107
      dxy     :     0.000194

 24 H s       :     0.887943  s :     0.887943
      pz      :     0.010577  p :     0.037804
      px      :     0.012368
      py      :     0.014859
      dz2     :     0.000212  d :     0.002225
      dxz     :     0.000301
      dyz     :     0.000445
      dx2y2   :     0.000790
      dxy     :     0.000476

 25 H s       :     0.893873  s :     0.893873
      pz      :     0.010311  p :     0.036698
      px      :     0.014528
      py      :     0.011859
      dz2     :     0.000306  d :     0.002179
      dxz     :     0.000465
      dyz     :     0.000190
      dx2y2   :     0.000743
      dxy     :     0.000475

 26 H s       :     0.891572  s :     0.891572
      pz      :     0.016668  p :     0.035997
      px      :     0.010140
      py      :     0.009190
      dz2     :     0.000498  d :     0.002131
      dxz     :     0.000779
      dyz     :     0.000785
      dx2y2   :     0.000042
      dxy     :     0.000027

 27 H s       :     0.888823  s :     0.888823
      pz      :     0.011078  p :     0.036792
      px      :     0.013783
      py      :     0.011932
      dz2     :     0.000195  d :     0.002083
      dxz     :     0.000642
      dyz     :     0.000146
      dx2y2   :     0.000494
      dxy     :     0.000606

 28 H s       :     0.900324  s :     0.900324
      pz      :     0.016012  p :     0.038131
      px      :     0.009066
      py      :     0.013053
      dz2     :     0.000566  d :     0.002047
      dxz     :     0.000715
      dyz     :     0.000592
      dx2y2   :     0.000081
      dxy     :     0.000092

 29 H s       :     0.841219  s :     0.841219
      pz      :     0.015310  p :     0.039445
      px      :     0.008598
      py      :     0.015538
      dz2     :     0.000557  d :     0.001968
      dxz     :     0.000456
      dyz     :     0.000251
      dx2y2   :     0.000253
      dxy     :     0.000450

 30 H s       :     0.840959  s :     0.840959
      pz      :     0.009620  p :     0.035627
      px      :     0.009583
      py      :     0.016424
      dz2     :     0.000168  d :     0.002019
      dxz     :     0.000239
      dyz     :     0.000382
      dx2y2   :     0.000736
      dxy     :     0.000494

 31 H s       :     0.861076  s :     0.861076
      pz      :     0.016119  p :     0.035724
      px      :     0.009741
      py      :     0.009864
      dz2     :     0.000529  d :     0.002057
      dxz     :     0.000632
      dyz     :     0.000803
      dx2y2   :     0.000060
      dxy     :     0.000032

 32 H s       :     0.629098  s :     0.629098
      pz      :     0.048590  p :     0.110220
      px      :     0.014938
      py      :     0.046691
      dz2     :     0.002011  d :     0.008947
      dxz     :     0.000879
      dyz     :     0.003689
      dx2y2   :     0.001528
      dxy     :     0.000840

 33 H s       :     0.729797  s :     0.729797
      pz      :     0.034644  p :     0.090634
      px      :     0.020850
      py      :     0.035140
      dz2     :     0.003863  d :     0.009468
      dxz     :     0.002130
      dyz     :     0.003217
      dx2y2   :     0.000156
      dxy     :     0.000102

 34 H s       :     0.874871  s :     0.874871
      pz      :     0.011800  p :     0.036077
      px      :     0.010057
      py      :     0.014220
      dz2     :     0.000104  d :     0.001843
      dxz     :     0.000269
      dyz     :     0.000430
      dx2y2   :     0.000634
      dxy     :     0.000406

 35 H s       :     0.889729  s :     0.889729
      pz      :     0.012017  p :     0.039165
      px      :     0.011862
      py      :     0.015286
      dz2     :     0.000204  d :     0.002010
      dxz     :     0.000268
      dyz     :     0.000426
      dx2y2   :     0.000598
      dxy     :     0.000514

 36 H s       :     0.877120  s :     0.877120
      pz      :     0.008074  p :     0.036622
      px      :     0.012542
      py      :     0.016006
      dz2     :     0.000205  d :     0.001865
      dxz     :     0.000015
      dyz     :     0.000598
      dx2y2   :     0.000336
      dxy     :     0.000712

 37 H s       :     0.892056  s :     0.892056
      pz      :     0.019019  p :     0.039019
      px      :     0.012162
      py      :     0.007837
      dz2     :     0.000573  d :     0.001999
      dxz     :     0.000728
      dyz     :     0.000645
      dx2y2   :     0.000040
      dxy     :     0.000012

 38 O s       :     3.926786  s :     3.926786
      pz      :     1.648456  p :     4.314392
      px      :     1.089386
      py      :     1.576550
      dz2     :     0.004440  d :     0.038414
      dxz     :     0.010176
      dyz     :     0.001312
      dx2y2   :     0.011354
      dxy     :     0.011133
      f0      :     0.000311  f :     0.003351
      f+1     :     0.000552
      f-1     :     0.000120
      f+2     :     0.000497
      f-2     :     0.000175
      f+3     :     0.000804
      f-3     :     0.000892

 39 O s       :     3.811651  s :     3.811651
      pz      :     1.586711  p :     4.315633
      px      :     1.182813
      py      :     1.546108
      dz2     :     0.005017  d :     0.046124
      dxz     :     0.011144
      dyz     :     0.005329
      dx2y2   :     0.013463
      dxy     :     0.011170
      f0      :     0.000311  f :     0.003153
      f+1     :     0.000467
      f-1     :     0.000135
      f+2     :     0.000489
      f-2     :     0.000202
      f+3     :     0.000739
      f-3     :     0.000811


SPIN
  0 O s       :    -0.000266  s :    -0.000266
      pz      :    -0.000170  p :    -0.000648
      px      :    -0.000211
      py      :    -0.000267
      dz2     :     0.000007  d :    -0.000023
      dxz     :    -0.000001
      dyz     :    -0.000022
      dx2y2   :    -0.000007
      dxy     :     0.000001
      f0      :    -0.000000  f :    -0.000001
      f+1     :     0.000000
      f-1     :    -0.000000
      f+2     :     0.000000
      f-2     :    -0.000001
      f+3     :    -0.000000
      f-3     :     0.000000

[...]
      dx2y2   :    -0.000000
      dxy     :    -0.000000

 29 H s       :    -0.000630  s :    -0.000630
      pz      :    -0.000519  p :    -0.001009
      px      :    -0.000045
      py      :    -0.000445
      dz2     :     0.000023  d :     0.000015
      dxz     :    -0.000006
      dyz     :    -0.000005
      dx2y2   :     0.000006
      dxy     :    -0.000004

 30 H s       :    -0.000000  s :    -0.000000
      pz      :     0.000000  p :    -0.000000
      px      :     0.000000
      py      :    -0.000000
      dz2     :    -0.000000  d :    -0.000000
      dxz     :    -0.000000
      dyz     :     0.000000
      dx2y2   :    -0.000000
      dxy     :     0.000000

 31 H s       :     0.000000  s :     0.000000
      pz      :     0.000001  p :     0.000001
      px      :    -0.000000
      py      :     0.000000
      dz2     :     0.000000  d :     0.000000
      dxz     :    -0.000000
      dyz     :     0.000000
      dx2y2   :     0.000000
      dxy     :     0.000000

 32 H s       :    -0.006352  s :    -0.006352
      pz      :     0.006496  p :     0.012918
      px      :    -0.000585
      py      :     0.007007
      dz2     :     0.004165  d :     0.005849
      dxz     :    -0.000094
      dyz     :     0.000336
      dx2y2   :     0.001440
      dxy     :     0.000002

 33 H s       :    -0.000000  s :    -0.000000
      pz      :     0.000000  p :     0.000001
      px      :     0.000000
      py      :     0.000001
      dz2     :     0.000000  d :     0.000001
      dxz     :     0.000000
      dyz     :     0.000000
      dx2y2   :    -0.000000
      dxy     :     0.000000

 34 H s       :    -0.000000  s :    -0.000000
      pz      :    -0.000000  p :    -0.000000
      px      :    -0.000000
      py      :     0.000000
      dz2     :     0.000000  d :    -0.000000
      dxz     :    -0.000000
      dyz     :    -0.000000
      dx2y2   :    -0.000000
      dxy     :    -0.000000

 35 H s       :     0.000000  s :     0.000000
      pz      :    -0.000000  p :    -0.000000
      px      :     0.000000
      py      :    -0.000000
      dz2     :    -0.000000  d :    -0.000000
      dxz     :    -0.000000
      dyz     :    -0.000000
      dx2y2   :    -0.000000
      dxy     :    -0.000000

 36 H s       :    -0.000000  s :    -0.000000
      pz      :     0.000000  p :     0.000002
      px      :     0.000001
      py      :     0.000000
      dz2     :     0.000000  d :     0.000000
      dxz     :     0.000000
      dyz     :     0.000000
      dx2y2   :     0.000000
      dxy     :     0.000000

 37 H s       :    -0.000000  s :    -0.000000
      pz      :     0.000000  p :     0.000002
      px      :     0.000001
      py      :     0.000000
      dz2     :     0.000000  d :     0.000000
      dxz     :     0.000000
      dyz     :     0.000000
      dx2y2   :     0.000000
      dxy     :     0.000000

 38 O s       :     0.007639  s :     0.007639
      pz      :     0.294931  p :     0.620793
      px      :     0.005713
      py      :     0.320148
      dz2     :     0.000431  d :     0.008871
      dxz     :     0.003551
      dyz     :     0.000180
      dx2y2   :     0.001129
      dxy     :     0.003580
      f0      :     0.000140  f :     0.000919
      f+1     :     0.000018
      f-1     :     0.000080
      f+2     :     0.000309
      f-2     :    -0.000021
      f+3     :     0.000147
      f-3     :     0.000246

 39 O s       :     0.005623  s :     0.005623
      pz      :     0.162246  p :     0.330981
      px      :    -0.007028
      py      :     0.175763
      dz2     :     0.000445  d :     0.014382
      dxz     :     0.006179
      dyz     :     0.000091
      dx2y2   :     0.001274
      dxy     :     0.006393
      f0      :     0.000132  f :     0.001702
      f+1     :     0.000100
      f-1     :     0.000170
      f+2     :     0.000564
      f-2     :     0.000023
      f+3     :     0.000296
      f-3     :     0.000417



                      *****************************
                      * MAYER POPULATION ANALYSIS *
                      *****************************

  NA   - Mulliken gross atomic population
  ZA   - Total nuclear charge
  QA   - Mulliken gross atomic charge
  VA   - Mayer's total valence
  BVA  - Mayer's bonded valence
  FA   - Mayer's free valence

  ATOM       NA         ZA         QA         VA         BVA        FA
  0 O      8.5707     8.0000    -0.5707     1.9078     1.9078     0.0000
  1 O      8.3198     8.0000    -0.3198     2.1412     2.1412     0.0000
  2 C      5.9964     6.0000     0.0036     3.5401     3.5401     0.0000
  3 C      5.9183     6.0000     0.0817     3.6980     3.6980     0.0000
  4 C      6.0524     6.0000    -0.0524     3.7950     3.7950     0.0000
  5 C      6.0816     6.0000    -0.0816     3.9108     3.9108     0.0000
  6 C      6.0320     6.0000    -0.0320     3.7034     3.7034     0.0000
  7 C      6.1635     6.0000    -0.1635     3.9350     3.9350     0.0000
  8 C      5.7956     6.0000     0.2044     4.1583     4.1583     0.0000
  9 C      6.2014     6.0000    -0.2014     4.0602     4.0602     0.0000
 10 C      5.7708     6.0000     0.2292     3.8906     3.8906     0.0000
 11 C      6.0873     6.0000    -0.0873     3.9081     3.9081     0.0000
 12 C      6.1063     6.0000    -0.1063     3.9072     3.9072     0.0000
 13 C      6.1129     6.0000    -0.1129     3.9533     3.9533     0.0000
 14 C      6.1694     6.0000    -0.1694     3.9059     3.9059     0.0000
 15 C      6.2375     6.0000    -0.2375     3.8676     3.8676     0.0000
 16 C      6.1307     6.0000    -0.1307     3.8349     3.8349     0.0000
 17 C      6.1043     6.0000    -0.1043     3.8243     3.8243     0.0000
 18 C      6.2274     6.0000    -0.2274     3.9569     3.9569     0.0000
 19 C      6.2419     6.0000    -0.2419     3.9521     3.9521     0.0000
 20 H      0.8954     1.0000     0.1046     1.0596     1.0596     0.0000
 21 H      0.9201     1.0000     0.0799     1.0175     1.0175     0.0000
 22 H      0.9007     1.0000     0.0993     1.0159     1.0159     0.0000
 23 H      0.9148     1.0000     0.0852     1.0074     1.0074     0.0000
 24 H      0.9280     1.0000     0.0720     1.0163     1.0163     0.0000
 25 H      0.9328     1.0000     0.0672     1.0070     1.0070     0.0000
 26 H      0.9297     1.0000     0.0703     1.0024     1.0024     0.0000
 27 H      0.9277     1.0000     0.0723     1.0092     1.0092     0.0000
 28 H      0.9405     1.0000     0.0595     1.0180     1.0180    -0.0000
 29 H      0.8826     1.0000     0.1174     1.0542     1.0542     0.0000
 30 H      0.8786     1.0000     0.1214     1.0076     1.0076     0.0000
 31 H      0.8989     1.0000     0.1011     1.0109     1.0109     0.0000
 32 H      0.7483     1.0000     0.2517     1.1181     1.1180     0.0001
 33 H      0.8299     1.0000     0.1701     1.0588     1.0588     0.0000
 34 H      0.9128     1.0000     0.0872     1.0068     1.0068     0.0000
 35 H      0.9309     1.0000     0.0691     1.0165     1.0165     0.0000
 36 H      0.9156     1.0000     0.0844     1.0089     1.0089     0.0000
 37 H      0.9331     1.0000     0.0669     1.0149     1.0149     0.0000
 38 O      8.2829     8.0000    -0.2829     1.7836     1.3537     0.4298
 39 O      8.1766     8.0000    -0.1766     2.1198     1.9781     0.1417

  Mayer bond orders larger than 0.100000
B(  0-O ,  8-C ) :   1.4551 B(  0-O , 32-H ) :   0.3532 B(  1-O , 10-C ) :   1.0804 
B(  1-O , 33-H ) :   1.0198 B(  2-C ,  3-C ) :   0.8768 B(  2-C ,  7-C ) :   1.3999 
B(  2-C ,  8-C ) :   1.2692 B(  3-C ,  5-C ) :   1.3802 B(  3-C ,  9-C ) :   1.4155 
B(  4-C ,  5-C ) :   1.4508 B(  4-C , 10-C ) :   1.3571 B(  4-C , 11-C ) :   0.9257 
B(  5-C , 20-H ) :   0.9412 B(  6-C ,  7-C ) :   1.4304 B(  6-C , 12-C ) :   0.9326 
B(  6-C , 13-C ) :   1.3207 B(  7-C , 21-H ) :   0.9511 B(  8-C , 15-C ) :   1.3199 
B(  9-C , 14-C ) :   1.4644 B(  9-C , 22-H ) :   0.9594 B( 10-C , 14-C ) :   1.3955 
B( 11-C , 16-C ) :   0.9473 B( 11-C , 23-H ) :   1.0082 B( 11-C , 24-H ) :   1.0009 
B( 12-C , 17-C ) :   0.9470 B( 12-C , 25-H ) :   0.9972 B( 12-C , 26-H ) :   1.0052 
B( 13-C , 15-C ) :   1.5151 B( 13-C , 27-H ) :   0.9838 B( 14-C , 28-H ) :   0.9731 
B( 15-C , 29-H ) :   0.9477 B( 16-C , 18-C ) :   1.9114 B( 16-C , 30-H ) :   0.9738 
B( 17-C , 19-C ) :   1.8998 B( 17-C , 31-H ) :   0.9793 B( 18-C , 34-H ) :   0.9948 
B( 18-C , 35-H ) :   0.9949 B( 19-C , 36-H ) :   0.9974 B( 19-C , 37-H ) :   0.9956 
B( 32-H , 39-O ) :   0.7114 B( 38-O , 39-O ) :   1.2766 

-------
TIMINGS
-------

Total SCF time: 0 days 0 hours 1 min 45 sec 

Total time                  ....     105.896 sec
Sum of individual times     ....     106.050 sec  (100.1%)

SCF preparation             ....       1.241 sec  (  1.2%)
Fock matrix formation       ....      91.801 sec  ( 86.7%)
  Startup                   ....       0.404 sec  (  0.4% of F)
  Split-RI-J                ....       5.187 sec  (  5.7% of F)
  Chain of spheres X        ....      76.080 sec  ( 82.9% of F)
  XC integration            ....       8.579 sec  (  9.3% of F)
    XC Preparation          ....       0.000 sec  (  0.0% of XC)
    Basis function eval.    ....       1.290 sec  ( 15.0% of XC)
    Density eval.           ....       2.756 sec  ( 32.1% of XC)
    XC-Functional eval.     ....       0.195 sec  (  2.3% of XC)
    XC-Potential eval.      ....       2.994 sec  ( 34.9% of XC)
Diagonalization             ....       0.000 sec  (  0.0%)
Density matrix formation    ....       1.244 sec  (  1.2%)
Total Energy calculation    ....       0.527 sec  (  0.5%)
Population analysis         ....       0.380 sec  (  0.4%)
Orbital Transformation      ....       1.225 sec  (  1.2%)
Orbital Orthonormalization  ....       0.000 sec  (  0.0%)
DIIS solution               ....       4.078 sec  (  3.9%)
SOSCF solution              ....       5.554 sec  (  5.2%)
Finished LeanSCF after 106.1 sec

Maximum memory used throughout the entire LEANSCF-calculation: 150.1 MB


-------------------------------------------------------------------------------
                          DFT DISPERSION CORRECTION                            
                                                                               
                              DFTD3 V3.1  Rev 1                                
                              USING zero damping                               
-------------------------------------------------------------------------------
The omegaB97X-D3 functional is recognized. Fit by Chai et al.
Active option DFTDOPT                   ...         3   

molecular C6(AA) [au] = 17885.682980 


            DFT-D V3
 parameters
 s6 scaling factor         :     1.0000 
 rs6 scaling factor        :     1.2810 
 s8 scaling factor         :     1.0000 
 rs8 scaling factor        :     1.0940 
 Damping factor alpha6     :    14.0000 
 Damping factor alpha8     :    16.0000 
 ad hoc parameters k1-k3   :    16.0000     1.3333    -4.0000 

 Edisp/kcal,au: -10.704608696216  -0.017058877988 
 E6   /kcal   :  -5.081226778 
 E8   /kcal   :  -5.623381918 
 % E8         :  52.532344507 

-------------------------   ----------------
Dispersion correction           -0.017058878
-------------------------   ----------------


-------------------------   --------------------
FINAL SINGLE POINT ENERGY      -997.658642271438
-------------------------   --------------------



           ************************************************************
           *        Program running with 28 parallel MPI-processes    *
           *              working on a common directory               *
           ************************************************************

------------------------------------------------------------------------------
                              ORCA PROPERTY CALCULATIONS
------------------------------------------------------------------------------

GBWName                                 ... honokiol_o2_SP_9.gbw
Number of atoms                         ...     40
Number of basis functions               ...    934
Max core memory                         ...   3500 MB

Electric properties:
Dipole moment                           ... YES
Quadrupole moment                       ...  NO
Static polarizability (Dipole/Dipole)   ...  NO
Static polarizability (Dipole/Quad.)    ...  NO
Static polarizability (Quad./Quad.)     ...  NO
Static polarizability (Velocity)        ...  NO

Atomic electric properties:
Dipole moment                           ...  NO
Quadrupole moment                       ...  NO
Static polarizability                   ...  NO

Choice of electric origin               ... Center of mass
Position of electric origin             ...     0.182789     0.598442    -0.955830

General magnetic properties:
Magnetizability                         ...  NO

EPR properties:
g-Tensor (aka g-matrix)                 ...  NO
Zero-Field splitting spin-orbit         ...  NO
Zero-field splitting spin-spin          ...  NO
Hyperfine couplings                     ...  NO (   0 nuclei)
Quadrupole couplings                    ...  NO (   0 nuclei)
Contact density                         ...  NO (   0 nuclei)

NMR properties:
Chemical shifts                         ...  NO (   0 nuclei)
Spin-rotation constants                 ...  NO (   0 nuclei)
Spin-spin couplings                     ...  NO (   0 nuclei,    0 pairs)

Choice of magnetic origin               ... GIAO
Position of magnetic origin             ...     0.000000     0.000000     0.000000

Properties with geometric perturbations:
SCF Hessian                             ...  NO
IR spectrum                             ...  NO
VCD spectrum                            ...  NO
X-ray spectroscopy properties:
SCF XES/XAS/RIXS spectra                ...  NO


-------------
DIPOLE MOMENT
-------------

Method             : SCF
Type of density    : Electron Density
Multiplicity       :   2
Irrep              :   0
Energy             :  -997.6415833934501052 Eh
Relativity type    : 
Basis              : AO
                                X                 Y                 Z
Electronic contribution:     -2.131519808       7.043495847      -4.418335654
Nuclear contribution   :      0.883313389      -9.794827020       7.175039362
                        -----------------------------------------
Total Dipole Moment    :     -1.248206420      -2.751331173       2.756703707
                        -----------------------------------------
Magnitude (a.u.)       :      4.089897043
Magnitude (Debye)      :     10.395692123



--------------------
Rotational spectrum 
--------------------
 
Rotational constants in cm-1:             0.010479             0.005419             0.003722 
Rotational constants in MHz :           314.158582           162.445282           111.583861 

Dipole components along the rotational axes: 
x,y,z [a.u.] :    -1.279843    -3.881695     0.147338 
x,y,z [Debye]:    -3.253101    -9.866483     0.374502 

 

Dipole moment calculation done in   0.0 sec 

Maximum memory used throughout the entire PROP-calculation: 84.2 MB

--------------------------------
SUGGESTED CITATIONS FOR THIS RUN
--------------------------------

Below you find a list of papers that are relevant to this ORCA run
We neither can nor want to force you to cite these papers, but we appreciate if you do
You receive ORCA, which is the product of decades of hard work by many enthusiastic individuals, for free
The only thing we kindly ask in return is that you cite our papers,
We deeply appreciate it, if you show your appreciation for ORCA by not just citing the generic ORCA reference.

Please note that relegating all ORCA citations to the supporting information does *not* help us.
SI sections are not indexed - citations you put there will not count into any citation statistics
But we need these citations in order to attract the funding resources that allow us to do what we are doing

Therefore, if you are a happy ORCA user, please consider citing a few of the papers listed below in the main body of your paper

In addition to the list printed below, the program has created the file honokiol_o2_SP_9.bibtex that contains the list in bibtex format
You can import this file easily into all common literature databanks and citation aid programs


List of essential papers. We consider these as the minimum necessary citations

  1. Neese,F.
     Software update: the ORCA program system, version 5.0
     WIRES Comput. Molec. Sci., 2022 12(1)e1606
     doi.org/10.1002/wcms.1606

List of papers to cite with high priority. The work reported in these papers was absolutely
necessary for this run to complete.
Our perspective: the developers of density functionals and basis sets usually get cited in chemistry papers
Good! But without the algorithms to do something with them, the functionals or basis sets would not do anything.
Hence, in our opinion, the algorithm design and method developments papers are equally worthy of getting cited

  1. Neese,F.
     An improvement of the resolution of the identity approximation for the formation of the Coulomb matrix
     J. Comp. Chem., 2003 24(14)1740-1747
     doi.org/10.1002/jcc.10318
  2. Neese,F.; Wennmohs,F.; Hansen,A.; Becker,U.
     Efficient, approximate and parallel Hartree-Fock and hybrid DFT calculations. A 'chain-of-spheres' algorithm for the Hartree-Fock exchange
     Chem. Phys., 2009 356(1-3)98-109
     doi.org/10.1016/j.chemphys.2008.10.036
  3. Helmich-Paris,B.; de Souza,B.; Neese,F.; Izsák,R.
     An improved chain of spheres for exchange algorithm
     J. Chem. Phys., 2021 155 104109
     doi.org/doi: 10.1063/5.0058766.
  4. Neese,F.
     The SHARK Integral Generation and Digestion System
     J. Comp. Chem., 2022  1-16
     doi.org/10.1002/jcc.26942
  5. Grimme,S.; Antony,J.; Ehrlich,S.; Krieg,H.
     A consistent and accurate ab initio parametrization of density functional dispersion correction (DFT-D) for the 94 elements H-Pu
     J. Chem. Phys., 2010 132 154104
     doi.org/10.1063/1.3382344

List of suggested additional citations. These are papers that are important in the 'surrounding' of 
of this run, or papers that preceded the highly important papers. If you like your results we are grateful for a citation.

  1. Izsak,R.; Neese,F.
     An overlap fitted chain of spheres exchange method
     J. Chem. Phys., 2011 135 144105
     doi.org/10.1063/1.3646921
  2. Izsak,R.; Hansen,A.; Neese,F.
     The resolution of identity and chain of spheres approximations for the LPNO-CCSD singles Fock term
     Molec. Phys., 2012 110 2413-2417
     doi.org/10.1080/00268976.2012.687466
  3. Neese,F.
     The ORCA program system
     WIRES Comput. Molec. Sci., 2012 2(1)73-78
     doi.org/10.1002/wcms.81
  4. Izsak,R.; Neese,F.; Klopper,W.
     Robust fitting techniques in the chain of spheres approximation to the Fock exchange: The role of the complementary space
     J. Chem. Phys., 2013 139 
     doi.org/10.1063/1.4819264
  5. Neese,F.
     Software update: the ORCA program system, version 4.0
     WIRES Comput. Molec. Sci., 2018 8(1)1-6
     doi.org/10.1002/wcms.1327
  6. Neese,F.; Wennmohs,F.; Becker,U.; Riplinger,C.
     The ORCA quantum chemistry program package
     J. Chem. Phys., 2020 152 Art. No. L224108
     doi.org/10.1063/5.0004608

List of optional additional citations

  1. Neese,F.
     Approximate second-order SCF convergence for spin unrestricted wavefunctions
     Chem. Phys. Lett., 2000 325(1-3)93-98
     doi.org/10.1016/s0009-2614(00)00662-x

Timings for individual modules:

Sum of individual times          ...      113.795 sec (=   1.897 min)
Startup calculation              ...        3.883 sec (=   0.065 min)   3.4 %
SCF iterations                   ...      108.598 sec (=   1.810 min)  95.4 %
Property calculations            ...        1.314 sec (=   0.022 min)   1.2 %
                             ****ORCA TERMINATED NORMALLY****
TOTAL RUN TIME: 0 days 0 hours 1 minutes 54 seconds 941 msec
