--------------------------------------------------------------------------
By default, for Open MPI 4.0 and later, infiniband ports on a device
are not used by default.  The intent is to use UCX for these devices.
You can override this policy by setting the btl_openib_allow_ib MCA parameter
to true.

  Local host:              psid01
  Local adapter:           mlx5_0
  Local port:              1

--------------------------------------------------------------------------
--------------------------------------------------------------------------
WARNING: There was an error initializing an OpenFabrics device.

  Local host:   psid01
  Local device: mlx5_0
--------------------------------------------------------------------------

     Program PWSCF v.7.3.1 starts on 11Feb2025 at  0:33:20 

     This program is part of the open-source Quantum ESPRESSO suite
     for quantum simulation of materials; please cite
         "P. Giannozzi et al., J. Phys.:Condens. Matter 21 395502 (2009);
         "P. Giannozzi et al., J. Phys.:Condens. Matter 29 465901 (2017);
         "P. Giannozzi et al., J. Chem. Phys. 152 154105 (2020);
          URL http://www.quantum-espresso.org", 
     in publications or presentations arising from this work. More details at
     http://www.quantum-espresso.org/quote

     Parallel version (MPI), running on     6 processors

     MPI processes distributed on     1 nodes
     63023 MiB available memory on the printing compute node when the environment starts

     Waiting for input...
     Reading input from standard input
Warning: card &CELL ignored
Warning: card / ignored

     Current dimensions of program PWSCF are:
     Max number of different atomic species (ntypx) = 10
     Max number of k-points (npk) =  40000
     Max angular momentum in pseudopotentials (lmaxx) =  4
     file O.pbe-n-kjpaw_psl.0.1.UPF: wavefunction(s)  2P renormalized

     gamma-point specific algorithms are used

     R & G space division:  proc/nbgrp/npool/nimage =       6
     Subspace diagonalization in iterative solution of the eigenvalue problem:
     one sub-group per band group will be used
     custom distributed-memory algorithm (size of sub-group:  2*  2 procs)


     Parallelization info
     --------------------
     sticks:   dense  smooth     PW     G-vecs:    dense   smooth      PW
     Min        3295    1316    330               688901   174272   21792
     Max        3298    1318    332               688912   174288   21798
     Sum       19777    7901   1983              4133441  1045681  130765

     Using Slab Decomposition



     bravais-lattice index     =           14
     lattice parameter (alat)  =      27.0138  a.u.
     unit-cell volume          =   21892.5290 (a.u.)^3
     number of atoms/cell      =           67
     number of atomic types    =            3
     number of electrons       =      1288.00
     number of Kohn-Sham states=          773
     kinetic-energy cutoff     =      50.0000  Ry
     charge density cutoff     =     500.0000  Ry
     scf convergence threshold =      1.0E-06
     mixing beta               =       0.7000
     number of iterations used =            8  plain     mixing
     energy convergence thresh.=      1.0E-04
     force convergence thresh. =      1.0E-03
     Exchange-correlation= PBE
                           (   1   4   3   4   0   0   0)
     nstep                     =          100


     celldm(1)=  27.013824  celldm(2)=   0.731537  celldm(3)=   1.757301
     celldm(4)=  -0.365770  celldm(5)=  -0.070307  celldm(6)=   0.365770

     crystal axes: (cart. coord. in units of alat)
               a(1) = (   1.000000   0.000000   0.000000 )  
               a(2) = (   0.267574   0.680846   0.000000 )  
               a(3) = (  -0.123550  -0.642069   1.631132 )  

     reciprocal axes: (cart. coord. in units 2 pi/alat)
               b(1) = (  1.000000 -0.393003 -0.078955 )  
               b(2) = ( -0.000000  1.468762  0.578155 )  
               b(3) = (  0.000000  0.000000  0.613071 )  


     PseudoPot. # 1 for Zn read from file:
     /home/ys/qe-7.3.1/pseudo/Standard_solid-state_pseudopotentials_SSSP_1.3.0_PBE_efficiency/Zn_pbe_v1.uspp.F.UPF
     MD5 check sum: df62231357ef9e81f77b2b3087fa5675
     Pseudo is Ultrasoft, Zval = 20.0
     Generated by new atomic code, or converted to UPF format
     Using radial grid of  943 points,  6 beta functions with: 
                l(1) =   0
                l(2) =   0
                l(3) =   1
                l(4) =   1
                l(5) =   2
                l(6) =   2
     Q(r) pseudized with  8 coefficients,  rinner =    1.100   1.100   1.100
                                                       1.100   1.100

     PseudoPot. # 2 for O  read from file:
     /home/ys/qe-7.3.1/pseudo/Standard_solid-state_pseudopotentials_SSSP_1.3.0_PBE_efficiency/O.pbe-n-kjpaw_psl.0.1.UPF
     MD5 check sum: 0234752ac141de4415c5fc33072bef88
     Pseudo is Projector augmented-wave + core cor, Zval =  6.0
     Generated using "atomic" code by A. Dal Corso  v.5.0.99 svn rev. 10869
     Shape of augmentation charge: BESSEL
     Using radial grid of 1095 points,  4 beta functions with: 
                l(1) =   0
                l(2) =   0
                l(3) =   1
                l(4) =   1
     Q(r) pseudized with 0 coefficients 


     PseudoPot. # 3 for H  read from file:
     /home/ys/qe-7.3.1/pseudo/Standard_solid-state_pseudopotentials_SSSP_1.3.0_PBE_efficiency/H.pbe-rrkjus_psl.1.0.0.UPF
     MD5 check sum: f52b6d4d1c606e5624b1dc7b2218f220
     Pseudo is Ultrasoft, Zval =  1.0
     Generated using "atomic" code by A. Dal Corso  v.5.1
     Using radial grid of  929 points,  2 beta functions with: 
                l(1) =   0
                l(2) =   0
     Q(r) pseudized with 0 coefficients 


     atomic species   valence    mass     pseudopotential
     Zn               20.00    65.39000     Zn( 1.00)
     O                 6.00    15.99940     O ( 1.00)
     H                 1.00     1.00794     H ( 1.00)

     No symmetry found



   Cartesian axes

     site n.     atom                  positions (alat units)
         1        Zn     tau(   1) = (   0.1250000   0.0491254   0.0193370  )
         2        Zn     tau(   2) = (   0.1918940   0.2193373   0.0193370  )
         3        Zn     tau(   3) = (   0.2587883   0.3895500   0.0193370  )
         4        Zn     tau(   4) = (   0.3256821   0.5597613   0.0193370  )
         5        Zn     tau(   5) = (   0.3749993   0.0491254   0.0193370  )
         6        Zn     tau(   6) = (   0.4418933   0.2193373   0.0193370  )
         7        Zn     tau(   7) = (   0.5087876   0.3895500   0.0193370  )
         8        Zn     tau(   8) = (   0.5756814   0.5597613   0.0193370  )
         9        Zn     tau(   9) = (   0.6249986   0.0491254   0.0193370  )
        10        Zn     tau(  10) = (   0.6918927   0.2193373   0.0193370  )
        11        Zn     tau(  11) = (   0.7587870   0.3895500   0.0193370  )
        12        Zn     tau(  12) = (   0.8256808   0.5597613   0.0193370  )
        13        Zn     tau(  13) = (   0.8749979   0.0491254   0.0193370  )
        14        Zn     tau(  14) = (   0.9418920   0.2193373   0.0193370  )
        15        Zn     tau(  15) = (   1.0087863   0.3895500   0.0193370  )
        16        Zn     tau(  16) = (   1.0756801   0.5597613   0.0193370  )
        17        Zn     tau(  17) = (   0.1743167   0.0297438   0.2127125  )
        18        Zn     tau(  18) = (   0.2412107   0.1999557   0.2127125  )
        19        Zn     tau(  19) = (   0.3081047   0.3701677   0.2127125  )
        20        Zn     tau(  20) = (   0.3749988   0.5403797   0.2127125  )
        21        Zn     tau(  21) = (   0.4243160   0.0297438   0.2127125  )
        22        Zn     tau(  22) = (   0.4912100   0.1999557   0.2127125  )
        23        Zn     tau(  23) = (   0.5581040   0.3701677   0.2127125  )
        24        Zn     tau(  24) = (   0.6249981   0.5403797   0.2127125  )
        25        Zn     tau(  25) = (   0.6743153   0.0297438   0.2127125  )
        26        Zn     tau(  26) = (   0.7412094   0.1999557   0.2127125  )
        27        Zn     tau(  27) = (   0.8081034   0.3701677   0.2127125  )
        28        Zn     tau(  28) = (   0.8749974   0.5403797   0.2127125  )
        29        Zn     tau(  29) = (   0.9243146   0.0297438   0.2127125  )
        30        Zn     tau(  30) = (   0.9912087   0.1999557   0.2127125  )
        31        Zn     tau(  31) = (   1.0581027   0.3701677   0.2127125  )
        32        Zn     tau(  32) = (   1.1249967   0.5403797   0.2127125  )
        33        Zn     tau(  33) = (   0.2412112   0.0034536   0.1353626  )
        34        Zn     tau(  34) = (   0.3081052   0.1736656   0.1353626  )
        35        Zn     tau(  35) = (   0.3749990   0.3438769   0.1353626  )
        36        Zn     tau(  36) = (   0.4418933   0.5140895   0.1353626  )
        37        Zn     tau(  37) = (   0.4912105   0.0034536   0.1353626  )
        38        Zn     tau(  38) = (   0.5581045   0.1736656   0.1353626  )
        39        Zn     tau(  39) = (   0.6249983   0.3438769   0.1353626  )
        40        Zn     tau(  40) = (   0.6918926   0.5140895   0.1353626  )
        41        Zn     tau(  41) = (   0.7412099   0.0034536   0.1353626  )
        42        Zn     tau(  42) = (   0.8081039   0.1736656   0.1353626  )
        43        Zn     tau(  43) = (   0.8749977   0.3438769   0.1353626  )
        44        Zn     tau(  44) = (   0.9418920   0.5140895   0.1353626  )
        45        Zn     tau(  45) = (   0.9912092   0.0034536   0.1353626  )
        46        Zn     tau(  46) = (   1.0581032   0.1736656   0.1353626  )
        47        Zn     tau(  47) = (   1.1249970   0.3438769   0.1353626  )
        48        Zn     tau(  48) = (   1.1918913   0.5140895   0.1353626  )
        49        Zn     tau(  49) = (   0.0581054   0.0754155   0.0966869  )
        50        Zn     tau(  50) = (   0.1249995   0.2456275   0.0966869  )
        51        Zn     tau(  51) = (   0.1918935   0.4158395   0.0966869  )
        52        Zn     tau(  52) = (   0.2587876   0.5860514   0.0966869  )
        53        Zn     tau(  53) = (   0.3081047   0.0754155   0.0966869  )
        54        Zn     tau(  54) = (   0.3749988   0.2456275   0.0966869  )
        55        Zn     tau(  55) = (   0.4418928   0.4158395   0.0966869  )
        56        Zn     tau(  56) = (   0.5087869   0.5860514   0.0966869  )
        57        Zn     tau(  57) = (   0.5581041   0.0754155   0.0966869  )
        58        Zn     tau(  58) = (   0.6249981   0.2456275   0.0966869  )
        59        Zn     tau(  59) = (   0.6918922   0.4158395   0.0966869  )
        60        Zn     tau(  60) = (   0.7587862   0.5860514   0.0966869  )
        61        Zn     tau(  61) = (   0.8081034   0.0754155   0.0966869  )
        62        Zn     tau(  62) = (   0.8749974   0.2456275   0.0966869  )
        63        Zn     tau(  63) = (   0.9418915   0.4158395   0.0966869  )
        64        Zn     tau(  64) = (   1.0087855   0.5860514   0.0966869  )
        65        O      tau(  65) = (   0.6314797   0.2241080   0.3076166  )
        66        H      tau(  66) = (   0.6914160   0.1925188   0.3037296  )
        67        H      tau(  67) = (   0.6108260   0.2129437   0.3712959  )

     number of k points=     1  Gaussian smearing, width (Ry)=  0.0100
                       cart. coord. in units 2pi/alat
        k(    1) = (   0.0000000   0.0000000   0.0000000), wk =   2.0000000

     Dense  grid:  2066721 G-vectors     FFT dimensions: ( 200, 144, 360)

     Smooth grid:   522841 G-vectors     FFT dimensions: ( 125,  90, 216)

     Estimated max dynamical RAM per process >       2.53 GB

     Estimated total dynamical RAM >      15.16 GB

     Initial potential from superposition of free atoms

     starting charge    1287.9910, renormalised to    1288.0000

     negative rho (up, down):  2.643E-03 0.000E+00
[psid01:222962] 5 more processes have sent help message help-mpi-btl-openib.txt / ib port not selected
[psid01:222962] Set MCA parameter "orte_base_help_aggregate" to 0 to see all help / error messages
[psid01:222962] 5 more processes have sent help message help-mpi-btl-openib.txt / error in device init
     Starting wfcs are  838 randomized atomic wfcs
     Checking if some PAW data can be deallocated... 

     total cpu time spent up to now is      125.5 secs

     Self-consistent Calculation

     iteration #  1     ecut=    50.00 Ry     beta= 0.70
     Davidson diagonalization with overlap
     ethr =  1.00E-02,  avg # of iterations =  8.0

     Threshold (ethr) on eigenvalues was too large:
     Diagonalizing with lowered threshold

     Davidson diagonalization with overlap
     ethr =  1.14E-04,  avg # of iterations = 16.0

     negative rho (up, down):  1.303E-03 0.000E+00

     total cpu time spent up to now is     1130.1 secs

     total energy              =  -29529.34204820 Ry
     estimated scf accuracy    <       1.52063538 Ry

     iteration #  2     ecut=    50.00 Ry     beta= 0.70
     Davidson diagonalization with overlap
     ethr =  1.18E-04,  avg # of iterations =  7.0

     negative rho (up, down):  2.126E-03 0.000E+00

     total cpu time spent up to now is     1610.2 secs

     total energy              =  -29529.17861417 Ry
     estimated scf accuracy    <       2.46567439 Ry

     iteration #  3     ecut=    50.00 Ry     beta= 0.70
     Davidson diagonalization with overlap
     ethr =  1.18E-04,  avg # of iterations =  6.0

     negative rho (up, down):  2.415E-03 0.000E+00

     total cpu time spent up to now is     2080.8 secs

     total energy              =  -29529.36266506 Ry
     estimated scf accuracy    <       3.99548458 Ry

     iteration #  4     ecut=    50.00 Ry     beta= 0.70
     Davidson diagonalization with overlap
     ethr =  1.18E-04,  avg # of iterations =  4.0

     negative rho (up, down):  2.453E-03 0.000E+00

     total cpu time spent up to now is     2485.6 secs

     total energy              =  -29529.72215777 Ry
     estimated scf accuracy    <       1.03596918 Ry

     iteration #  5     ecut=    50.00 Ry     beta= 0.70
     Davidson diagonalization with overlap
     ethr =  8.04E-05,  avg # of iterations =  2.0

     negative rho (up, down):  2.494E-03 0.000E+00

     total cpu time spent up to now is     2876.2 secs

     total energy              =  -29529.78346345 Ry
     estimated scf accuracy    <       0.49333408 Ry

     iteration #  6     ecut=    50.00 Ry     beta= 0.70
     Davidson diagonalization with overlap
     ethr =  3.83E-05,  avg # of iterations =  2.0

     negative rho (up, down):  2.498E-03 0.000E+00

     total cpu time spent up to now is     3257.8 secs

     total energy              =  -29529.82389890 Ry
     estimated scf accuracy    <       0.22171568 Ry

     iteration #  7     ecut=    50.00 Ry     beta= 0.70
     Davidson diagonalization with overlap
     ethr =  1.72E-05,  avg # of iterations =  2.0

     negative rho (up, down):  2.497E-03 0.000E+00

     total cpu time spent up to now is     3626.0 secs

     total energy              =  -29529.84450305 Ry
     estimated scf accuracy    <       0.02742991 Ry

     iteration #  8     ecut=    50.00 Ry     beta= 0.70
     Davidson diagonalization with overlap
     ethr =  2.13E-06,  avg # of iterations =  6.0

     negative rho (up, down):  2.500E-03 0.000E+00

     total cpu time spent up to now is     4007.6 secs

     total energy              =  -29529.84706975 Ry
     estimated scf accuracy    <       0.00985423 Ry

     iteration #  9     ecut=    50.00 Ry     beta= 0.70
     Davidson diagonalization with overlap
     ethr =  7.65E-07,  avg # of iterations =  6.0

     negative rho (up, down):  2.503E-03 0.000E+00

     total cpu time spent up to now is     4377.7 secs

     total energy              =  -29529.84767858 Ry
     estimated scf accuracy    <       0.00916971 Ry

     iteration # 10     ecut=    50.00 Ry     beta= 0.70
     Davidson diagonalization with overlap
     ethr =  7.12E-07,  avg # of iterations =  3.0

     negative rho (up, down):  2.506E-03 0.000E+00

     total cpu time spent up to now is     4740.0 secs

     total energy              =  -29529.84853514 Ry
     estimated scf accuracy    <       0.00148376 Ry

     iteration # 11     ecut=    50.00 Ry     beta= 0.70
     Davidson diagonalization with overlap
     ethr =  1.15E-07,  avg # of iterations =  2.0

     negative rho (up, down):  2.506E-03 0.000E+00

     total cpu time spent up to now is     5100.3 secs

     total energy              =  -29529.84866490 Ry
     estimated scf accuracy    <       0.00036062 Ry

     iteration # 12     ecut=    50.00 Ry     beta= 0.70
     Davidson diagonalization with overlap
     ethr =  2.80E-08,  avg # of iterations =  2.0

     negative rho (up, down):  2.507E-03 0.000E+00

     total cpu time spent up to now is     5463.9 secs

     total energy              =  -29529.84869543 Ry
     estimated scf accuracy    <       0.00044486 Ry

     iteration # 13     ecut=    50.00 Ry     beta= 0.70
     Davidson diagonalization with overlap
     ethr =  2.80E-08,  avg # of iterations =  2.0

     negative rho (up, down):  2.507E-03 0.000E+00

     total cpu time spent up to now is     5823.6 secs

     total energy              =  -29529.84872961 Ry
     estimated scf accuracy    <       0.00008514 Ry

     iteration # 14     ecut=    50.00 Ry     beta= 0.70
     Davidson diagonalization with overlap
     ethr =  6.61E-09,  avg # of iterations =  2.0

     negative rho (up, down):  2.507E-03 0.000E+00

     total cpu time spent up to now is     6185.4 secs

     total energy              =  -29529.84873348 Ry
     estimated scf accuracy    <       0.00008008 Ry

     iteration # 15     ecut=    50.00 Ry     beta= 0.70
     Davidson diagonalization with overlap
     ethr =  6.22E-09,  avg # of iterations =  2.0

     negative rho (up, down):  2.507E-03 0.000E+00

     total cpu time spent up to now is     6544.4 secs

     total energy              =  -29529.84873857 Ry
     estimated scf accuracy    <       0.00004330 Ry

     iteration # 16     ecut=    50.00 Ry     beta= 0.70
     Davidson diagonalization with overlap
     ethr =  3.36E-09,  avg # of iterations =  2.0

     negative rho (up, down):  2.507E-03 0.000E+00

     total cpu time spent up to now is     6906.3 secs

     total energy              =  -29529.84874130 Ry
     estimated scf accuracy    <       0.00001520 Ry

     iteration # 17     ecut=    50.00 Ry     beta= 0.70
     Davidson diagonalization with overlap
     ethr =  1.18E-09,  avg # of iterations =  2.0

     negative rho (up, down):  2.507E-03 0.000E+00

     total cpu time spent up to now is     7266.6 secs

     total energy              =  -29529.84874264 Ry
     estimated scf accuracy    <       0.00000522 Ry

     iteration # 18     ecut=    50.00 Ry     beta= 0.70
     Davidson diagonalization with overlap
     ethr =  4.05E-10,  avg # of iterations =  2.0

     negative rho (up, down):  2.507E-03 0.000E+00

     total cpu time spent up to now is     7630.8 secs

     total energy              =  -29529.84874302 Ry
     estimated scf accuracy    <       0.00000179 Ry

     iteration # 19     ecut=    50.00 Ry     beta= 0.70
     Davidson diagonalization with overlap
     ethr =  1.39E-10,  avg # of iterations =  2.0

     negative rho (up, down):  2.508E-03 0.000E+00

     total cpu time spent up to now is     7993.0 secs

     End of self-consistent calculation

          k = 0.0000 0.0000 0.0000 ( 65383 PWs)   bands (ev):

  -131.2569-131.2321-131.2193-131.2057-131.0596-131.0582-131.0367-131.0296
  -131.0241-131.0181-131.0100-131.0054-130.5854-130.5669-130.5577-130.5432
  -130.5399-130.5365-130.5280-130.5213-130.0878-130.0862-130.0651-130.0572
  -130.0519-130.0457-130.0374-130.0328-129.8827-129.8558-129.8442-129.8306
  -127.6612-127.1411-127.1136-127.0819-127.0779-127.0774-127.0680-127.0645
  -127.0572-127.0557-127.0545-127.0539-127.0536-127.0437-127.0390-127.0358
  -127.0332-127.0319-127.0287-127.0271-127.0253-127.0243-127.0222-127.0202
  -127.0189-127.0154-127.0147-127.0136-127.0115-127.0114-127.0063-127.0011
   -87.2662 -87.2405 -87.2290 -87.2164 -87.1654 -87.1627 -87.1369 -87.1342
   -87.1260 -87.1233 -87.1134 -87.1110 -86.7906 -86.7777 -86.7524 -86.7520
   -86.7416 -86.7394 -86.7289 -86.7269 -86.2906 -86.2786 -86.2515 -86.2445
   -86.2383 -86.2329 -86.2246 -86.2214 -86.0523 -86.0137 -86.0017 -85.9892
   -85.3310 -85.2875 -85.2751 -85.2625 -84.9862 -84.9663 -84.9372 -84.9316
   -84.9248 -84.9204 -84.9113 -84.9089 -84.5004 -84.4803 -84.4651 -84.4499
   -84.3912 -84.3895 -84.3716 -84.3643 -84.3574 -84.3517 -84.3422 -84.3373
   -84.2511 -84.2281 -84.2012 -84.1979 -84.1895 -84.1867 -84.1757 -84.1753
   -84.1336 -84.1156 -84.1087 -84.0966 -84.0913 -84.0868 -84.0777 -84.0697
   -83.8598 -83.8578 -83.8421 -83.8326 -83.8265 -83.8204 -83.8108 -83.8060
   -83.7487 -83.7252 -83.7130 -83.6983 -83.5738 -83.5631 -83.5369 -83.5324
   -83.5255 -83.5216 -83.5123 -83.5092 -83.2785 -83.2512 -83.2407 -83.2278
   -81.8682 -81.6037 -81.5858 -81.3582 -81.3276 -81.3227 -81.3047 -81.2936
   -81.2831 -81.2714 -81.2620 -81.2600 -81.2573 -81.2571 -81.2473 -81.2422
   -81.2407 -81.2379 -81.2352 -81.2313 -81.2200 -81.2095 -81.2040 -81.2011
   -81.2006 -81.1964 -81.1962 -81.1939 -81.1924 -81.1913 -81.1889 -81.1867
   -81.1818 -81.1791 -81.1059 -81.0891 -81.0763 -81.0644 -81.0471 -81.0463
   -81.0368 -81.0345 -81.0343 -81.0313 -81.0301 -81.0278 -81.0254 -81.0230
   -81.0210 -81.0206 -81.0192 -81.0137 -81.0122 -81.0105 -81.0096 -81.0094
   -81.0085 -81.0083 -81.0082 -80.9968 -80.9966 -80.9965 -80.9965 -80.9960
   -80.9938 -80.9924 -80.9904 -80.9897 -80.9895 -80.9890 -80.9866 -80.9857
   -80.9848 -80.9839 -80.9836 -80.9820 -80.9808 -80.9806 -80.9802 -80.9797
   -80.9787 -80.9776 -80.9762 -80.9736 -80.9730 -80.9721 -80.9720 -80.9695
   -80.9691 -80.9682 -80.9649 -80.9649 -80.9649 -80.9617 -80.9574 -80.9561
   -22.3631 -16.9447 -16.9439 -16.9101 -16.9099 -16.8786 -16.8781 -16.8547
   -16.8545 -16.7117 -16.7036 -16.6764 -16.6708 -16.6370 -16.6265 -16.6077
   -16.6049 -15.7819 -15.7319 -15.7217 -15.6780 -14.9039 -14.8986 -14.8682
   -14.8677 -14.8637 -14.8471 -14.8464 -14.8299 -14.8256 -14.8251 -14.8187
   -14.8050 -14.6548 -14.6511 -14.6243 -14.6232 -14.5502 -14.5075 -14.4958
   -14.4686 -14.4609 -14.4582 -14.4345 -14.4329 -14.3649 -14.3604 -14.3008
   -14.2449 -14.2406 -14.2379 -14.2368 -14.2078 -14.2052 -14.1822 -14.0710
   -14.0682 -13.4830 -13.3864 -13.3823 -13.3683 -13.3609 -13.3444 -13.3419
   -13.3357 -13.3335 -13.3268 -13.3243 -13.3238 -13.3195 -13.3052 -13.3009
   -13.2866 -13.2833 -13.2512 -13.2450 -13.2238 -13.2221 -13.1893 -13.1844
   -13.1629 -13.1612 -13.0376 -13.0118 -12.9127 -12.8955 -12.8225 -12.7994
   -12.7989 -12.7712 -12.7367 -12.7213 -12.7184 -12.6752 -12.5887 -12.5749
   -12.3615 -12.3370 -12.2418 -12.1811 -12.1699 -12.1531 -12.1371 -12.1237
   -12.1233 -12.0851 -11.7680 -11.7092 -11.6978 -11.6916 -11.6831 -11.6703
   -11.6652 -11.6626 -11.6407 -11.6266 -11.2700 -11.2437 -11.2163 -11.2003
   -11.1685 -11.1076 -11.0656 -11.0026 -10.9902 -10.8502 -10.8004 -10.7957
   -10.7805 -10.7344 -10.7111 -10.7019 -10.6646 -10.6630 -10.5990 -10.5846
   -10.5816 -10.5318 -10.5275 -10.5131 -10.4472 -10.2415 -10.2114 -10.1372
   -10.1167 -10.0979 -10.0771 -10.0612  -9.9537  -9.9415  -9.9154  -9.8936
    -9.8731  -9.8459  -9.8097  -9.7809  -9.7795  -9.7648  -9.7565  -9.7360
    -9.7342  -9.7224  -9.4510  -9.4362  -9.4138  -9.4111  -9.3656  -9.3308
    -9.3121  -9.3073  -9.2305  -8.8665  -8.8336  -8.7590  -8.7480  -8.7266
    -8.6953  -8.6755  -8.6648  -8.5994  -8.5014  -8.4742  -8.4401  -8.4003
    -8.3542  -8.3391  -8.2976  -8.2318  -8.2191  -8.2020  -8.1962  -8.1678
    -8.1466  -8.1261  -8.1251  -8.1201  -8.1165  -8.0815  -8.0691  -8.0115
    -7.9964  -7.9859  -7.9714  -7.9577  -7.8954  -7.8683  -7.8447  -7.8327
    -7.8281  -7.8201  -7.8194  -7.8066  -7.7960  -7.7853  -7.7735  -7.7520
    -7.7470  -7.7410  -7.7332  -7.7309  -7.7281  -7.7240  -7.7181  -7.7126
    -7.7043  -7.6978  -7.6878  -7.6863  -7.6701  -7.6476  -7.6393  -7.6282
    -7.6234  -7.6194  -7.6164  -7.6062  -7.6052  -7.5952  -7.5938  -7.5851
    -7.5754  -7.5490  -7.5431  -7.5387  -7.5184  -7.4982  -7.4835  -7.4775
    -7.4610  -7.4413  -7.4270  -7.4149  -7.4139  -7.4064  -7.3971  -7.3933
    -7.3917  -7.3889  -7.3673  -7.3516  -7.3131  -7.3072  -7.3014  -7.2983
    -7.2940  -7.2852  -7.2781  -7.2550  -7.2433  -7.2361  -7.2164  -7.2029
    -7.2003  -7.1706  -7.1655  -7.1587  -7.1547  -7.1514  -7.1500  -7.1427
    -7.1387  -7.1214  -7.1095  -7.1041  -7.0947  -7.0843  -7.0657  -7.0593
    -7.0402  -7.0369  -7.0159  -7.0046  -7.0019  -6.9760  -6.9718  -6.9617
    -6.9598  -6.9561  -6.9377  -6.9372  -6.9278  -6.9200  -6.8926  -6.8763
    -6.8596  -6.8406  -6.8340  -6.8174  -6.8084  -6.8057  -6.7887  -6.7407
    -6.7210  -6.7043  -6.6211  -6.6080  -6.5952  -6.5716  -6.4437  -6.3502
    -6.3015  -6.2762  -6.2415  -6.2385  -6.2047  -6.1915  -6.1663  -6.1644
    -5.9629  -5.9287  -5.9099  -5.8646  -5.8629  -5.8039  -5.7990  -5.7702
    -5.7698  -5.5172  -5.4159  -5.2586  -5.1202  -5.0448  -4.8907  -4.8771
    -4.8317  -4.8283  -4.7123  -4.6281  -4.6009  -4.5995  -4.4762  -4.2451
    -4.2156  -4.0396  -3.5741  -2.9676  -2.9503  -2.9036  -2.8702  -2.7114
    -2.6806  -2.6449  -2.5035  -1.7569  -1.5555  -1.5497  -1.1362  -0.4203
    -0.3647  -0.2525  -0.1972  -0.1421  -0.1385   0.2378   0.2801   0.3210
     0.3309   0.4019   0.4339   0.4548   0.5126   0.5451   0.5969   0.9435
     0.9534   0.9712   0.9937   1.3608   1.4632   1.5186   1.6098   1.6169
     1.6303   1.6403   1.6449   1.6537   1.6748   2.2087   2.2798   2.2960
     2.3165   2.3705   2.5572   2.6442   2.8964   2.9426   3.2499   3.2888
     3.3061   3.3208   3.4701   3.4926   3.5344   3.6279   3.7092   3.8080
     3.8916   3.9297   3.9509   4.2797   4.3686   4.4539   4.6093   4.6874
     4.7278   5.1277   5.3414   5.3499   5.3607   5.4153   5.4587   5.5701
     5.6589   5.8055   5.8216   5.8397   5.8525   5.9249   5.9437   5.9667
     6.0708   6.1222   6.1650   6.1880   6.2255   6.2641   6.2915   6.3089
     6.3411   6.3652   6.3883   6.4702   6.5050   6.5091   6.5184   6.5487
     6.5575   6.6628   6.7783   6.8066   6.8371   6.8447   6.8921   6.9036
     6.9562   6.9956   7.0227   7.0450   7.0539   7.0671   7.0908   7.1542
     7.1739   7.2032   7.2189   7.2193   7.2676   7.2750   7.3039   7.4515
     7.4905   7.5092   7.5903   7.6577   7.7522   7.9006   7.9139   7.9695
     7.9860   8.0013   8.0228   8.0574   8.0770   8.0817   8.0958   8.1194
     8.1299   8.1562   8.1766   8.2147   8.2233   8.2279   8.2433   8.3014
     8.4782   8.4846   8.5067   8.5702   8.5885   8.6271   8.6342   8.6549
     8.6602   8.6697   8.7054   8.7371   8.7981

     the Fermi energy is     1.3927 ev

!    total energy              =  -29529.84874287 Ry
     estimated scf accuracy    <       0.00000048 Ry
     smearing contrib. (-TS)   =      -0.01373870 Ry
     internal energy E=F+TS    =  -29529.83500416 Ry

     The total energy is F=E-TS. E is the sum of the following terms:
     one-electron contribution = -241129.16555772 Ry
     hartree contribution      =  120323.21903792 Ry
     xc contribution           =   -2744.95826712 Ry
     ewald contribution        =   94030.58922465 Ry
     one-center paw contrib.   =      -9.51944191 Ry

     convergence has been achieved in  19 iterations

     negative rho (up, down):  2.508E-03 0.000E+00

     Forces acting on atoms (cartesian axes, Ry/au):

     atom    1 type  1   force =     1.10268644   -0.43350358   -1.38108209
     atom    2 type  1   force =     1.10245612   -0.43421876   -1.38276218
     atom    3 type  1   force =     1.10456490   -0.43340039   -1.38327051
     atom    4 type  1   force =     1.10214136   -0.43306383   -1.38257864
     atom    5 type  1   force =     1.10065173   -0.43247466   -1.38284488
     atom    6 type  1   force =     1.10024762   -0.43199078   -1.38366696
     atom    7 type  1   force =     1.09950914   -0.43240118   -1.38275147
     atom    8 type  1   force =     1.10088936   -0.43176209   -1.38258058
     atom    9 type  1   force =     1.10318938   -0.43452904   -1.38239503
     atom   10 type  1   force =     1.10350354   -0.43372978   -1.37964958
     atom   11 type  1   force =     1.10379823   -0.43256663   -1.38324065
     atom   12 type  1   force =     1.10422516   -0.43426313   -1.38432383
     atom   13 type  1   force =     1.10135450   -0.43114433   -1.38049557
     atom   14 type  1   force =     1.10002692   -0.43440042   -1.38059963
     atom   15 type  1   force =     1.10139451   -0.43180331   -1.37986467
     atom   16 type  1   force =     1.10144391   -0.43373320   -1.37974605
     atom   17 type  1   force =    -1.10225180    0.43317695    1.38297422
     atom   18 type  1   force =    -1.10237988    0.43339289    1.38332472
     atom   19 type  1   force =    -1.10154210    0.43284370    1.38417020
     atom   20 type  1   force =    -1.10255614    0.43311390    1.38302039
     atom   21 type  1   force =    -1.10183737    0.43506765    1.38181438
     atom   22 type  1   force =    -1.12290438    0.43203589    1.37156733
     atom   23 type  1   force =    -1.11027444    0.44412239    1.37451739
     atom   24 type  1   force =    -1.10292896    0.43258958    1.38131607
     atom   25 type  1   force =    -1.09947371    0.41664327    1.37401906
     atom   26 type  1   force =    -0.98385979    0.43623438    1.21460503
     atom   27 type  1   force =    -1.09532715    0.43938140    1.37704207
     atom   28 type  1   force =    -1.10273547    0.43321889    1.38100216
     atom   29 type  1   force =    -1.10293033    0.43316992    1.38284308
     atom   30 type  1   force =    -1.10303077    0.43358119    1.38278503
     atom   31 type  1   force =    -1.10279004    0.43370614    1.38395596
     atom   32 type  1   force =    -1.10285897    0.43306848    1.38345943
     atom   33 type  1   force =    -0.01735532    0.00678225    0.08789294
     atom   34 type  1   force =    -0.01651939    0.00646893    0.08650073
     atom   35 type  1   force =    -0.01491039    0.00623005    0.08694273
     atom   36 type  1   force =    -0.01638789    0.00621950    0.08759719
     atom   37 type  1   force =    -0.01595029    0.00682223    0.08762845
     atom   38 type  1   force =    -0.02445705    0.00203591    0.06021345
     atom   39 type  1   force =    -0.01872212    0.01219504    0.07402443
     atom   40 type  1   force =    -0.01721743    0.00728437    0.08688736
     atom   41 type  1   force =    -0.01619250    0.00634011    0.08825440
     atom   42 type  1   force =    -0.01403319    0.00609168    0.08666348
     atom   43 type  1   force =    -0.01700667    0.00719240    0.08950474
     atom   44 type  1   force =    -0.01775025    0.00650802    0.08671505
     atom   45 type  1   force =    -0.01574155    0.00702020    0.08728770
     atom   46 type  1   force =    -0.01630886    0.00639473    0.08705130
     atom   47 type  1   force =    -0.01680993    0.00663936    0.08817176
     atom   48 type  1   force =    -0.01615740    0.00723253    0.08719558
     atom   49 type  1   force =     0.01672516   -0.00686468   -0.08590006
     atom   50 type  1   force =     0.01514683   -0.00617295   -0.08786926
     atom   51 type  1   force =     0.01486027   -0.00585993   -0.08748058
     atom   52 type  1   force =     0.01515792   -0.00679706   -0.08794566
     atom   53 type  1   force =     0.01749486   -0.00662257   -0.08891624
     atom   54 type  1   force =     0.01579195   -0.00611577   -0.09057468
     atom   55 type  1   force =     0.01635269   -0.00703069   -0.09078223
     atom   56 type  1   force =     0.01831960   -0.00715822   -0.08904091
     atom   57 type  1   force =     0.01628161   -0.00287933   -0.08337246
     atom   58 type  1   force =     0.01249023   -0.00443641   -0.09565589
     atom   59 type  1   force =     0.01510576   -0.00790085   -0.08456416
     atom   60 type  1   force =     0.01435125   -0.00537816   -0.08273667
     atom   61 type  1   force =     0.01982755   -0.00979831   -0.09205095
     atom   62 type  1   force =     0.02075078   -0.00684295   -0.09072016
     atom   63 type  1   force =     0.01644865   -0.00611505   -0.08835815
     atom   64 type  1   force =     0.01677774   -0.00699315   -0.08847396
     atom   65 type  2   force =    -0.10406412    0.05403799    0.09034177
     atom   66 type  3   force =     0.02856202   -0.06320685    0.12632101
     atom   67 type  3   force =    -0.00726207   -0.00168383    0.02868376

     Total force =    10.276013     Total SCF correction =     0.009514

     BFGS Geometry Optimization
     Energy error            =      0.0E+00 Ry
     Gradient error          =      1.4E+00 Ry/Bohr

     number of scf cycles    =   1
     number of bfgs steps    =   0

     energy             new  =  -29529.8487428657 Ry

     new trust radius        =       0.5000000000 bohr
     new conv_thr            =       0.0000010000 Ry


ATOMIC_POSITIONS (angstrom)
Zn               1.9467991728        0.6393850809        0.0761397412
Zn               2.9030227727        3.0724783652        0.0758960946
Zn               3.8595895890        5.5058040455        0.0758223758
Zn               4.8154911260        7.9390408528        0.0759227113
Zn               5.5202690991        0.6395342946        0.0758841014
Zn               6.4764674948        3.0728014673        0.0757648825
Zn               7.4326213995        5.5059489509        0.0758976480
Zn               8.3890745596        7.9392296322        0.0759224299
Zn               9.0944031094        0.6392363673        0.0759493378
Zn              10.0507056695        3.0725492763        0.0763474850
Zn              11.0070094056        5.5059249571        0.0758267068
Zn              11.9633243189        7.9388669301        0.0756696229
Zn              12.6679020140        0.6397272203        0.0762247986
Zn              13.6239664889        3.0724520197        0.0762097083
Zn              14.5804258175        5.5060356539        0.0763162922
Zn              15.5366859806        7.9389437804        0.0763334955
Zn               2.3320248588        0.4880095507        3.2413056554
Zn               3.2882632849        2.9212378676        3.2413564859
Zn               4.2446417799        5.3543552231        3.2414790970
Zn               5.2007517231        7.7875924083        3.2413123515
Zn               5.9058499587        0.4882837415        3.2411374552
Zn               6.8590518109        2.9210410737        3.2396514229
Zn               7.8171404107        5.3559908651        3.2400792428
Zn               8.7744626562        7.7875163702        3.2410651902
Zn               9.4799587381        0.4856118279        3.2400069742
Zn              10.4529821311        2.9216499413        3.2168886672
Zn              11.3930740752        5.3553033235        3.2404453728
Zn              12.3482567164        7.7876076336        3.2410196665
Zn              13.0532224578        0.4880085317        3.2412866374
Zn              14.0094648925        2.9212651742        3.2412782196
Zn              14.9657568022        5.3544802945        3.2414480279
Zn              15.9220038063        7.7875858205        3.2413760213
Zn               3.4456211222        0.0503525653        1.9477682814
Zn               4.4019993488        2.4835051274        1.9475663824
Zn               5.3584856872        4.9166574855        1.9476304802
Zn               6.3145324194        7.3498629547        1.9477253909
Zn               7.0195898801        0.0503583636        1.9477299243
Zn               7.9746132254        2.4828622492        1.9437541866
Zn               8.9316979087        4.9175225314        1.9457570628
Zn               9.8881771185        7.3500173835        1.9476224504
Zn              10.5933207555        0.0502884458        1.9478207005
Zn              11.5498908989        2.4834504190        1.9475899837
Zn              12.5057126843        4.9167970459        1.9480020246
Zn              13.4618658493        7.3499047962        1.9475974625
Zn              14.1671511518        0.0503870730        1.9476805087
Zn              15.1233258800        2.4834943677        1.9476462263
Zn              16.0795062144        4.9167168428        1.9478087149
Zn              17.0358618452        7.3500098658        1.9476671492
Zn               0.8330484922        1.0770764798        1.3696917276
Zn               1.7890766010        3.5103747949        1.3694061525
Zn               2.7452920443        5.9436171898        1.3694625194
Zn               3.7015922103        8.3766782872        1.3693950735
Zn               4.4069251136        1.0771115915        1.3692543201
Zn               5.3629351568        3.5103830873        1.3690138116
Zn               6.3192734760        5.9434474061        1.3689837127
Zn               7.2758157183        8.3766259109        1.3692362396
Zn               7.9805151676        1.0776544387        1.3700582817
Zn               8.9362223404        3.5106266293        1.3682769313
Zn               9.8928586458        5.9433212145        1.3698854612
Zn              10.8490062258        8.3768840568        1.3701504845
Zn              11.5547944025        1.0766510441        1.3687997223
Zn              12.5111852890        3.5102776314        1.3689927136
Zn              13.4668183923        5.9435801927        1.3693352540
Zn              14.4231231169        8.3766498491        1.3693184591
O                9.0119745664        3.2114826184        4.4105114112
H                9.8880030798        2.7429097093        4.3601641406
H                8.7307658508        3.0438078097        5.3118717346



     Writing config-only to output data dir /home/ys/Research/PSID_server_room/qe/zinc_surface_water.relax/Zn_101_water/pwscf.save/ :
     XML data file
     NEW-OLD atomic charge density approx. for the potential

     negative rho (up, down):  4.443E-03 0.000E+00

     total cpu time spent up to now is     8166.2 secs

     Self-consistent Calculation

     iteration #  1     ecut=    50.00 Ry     beta= 0.70
     Davidson diagonalization with overlap
     ethr =  1.00E-06,  avg # of iterations = 17.0

     negative rho (up, down):  2.048E-03 0.000E+00

     total cpu time spent up to now is     9587.2 secs

     total energy              =  -29548.09996167 Ry
     estimated scf accuracy    <       0.24036536 Ry

     iteration #  2     ecut=    50.00 Ry     beta= 0.70
     Davidson diagonalization with overlap
     ethr =  1.87E-05,  avg # of iterations =  7.0

     negative rho (up, down):  2.321E-03 0.000E+00

     total cpu time spent up to now is    10085.3 secs

     total energy              =  -29548.01746439 Ry
     estimated scf accuracy    <       0.62386351 Ry

     iteration #  3     ecut=    50.00 Ry     beta= 0.70
     Davidson diagonalization with overlap
     ethr =  1.87E-05,  avg # of iterations =  8.0

     negative rho (up, down):  2.513E-03 0.000E+00

     total cpu time spent up to now is    10567.6 secs

     total energy              =  -29548.03743266 Ry
     estimated scf accuracy    <       1.52793252 Ry

     iteration #  4     ecut=    50.00 Ry     beta= 0.70
     Davidson diagonalization with overlap
     ethr =  1.87E-05,  avg # of iterations =  9.0

     negative rho (up, down):  2.489E-03 0.000E+00

     total cpu time spent up to now is    10965.3 secs

     total energy              =  -29548.13342450 Ry
     estimated scf accuracy    <       0.37843750 Ry

     iteration #  5     ecut=    50.00 Ry     beta= 0.70
     Davidson diagonalization with overlap
     ethr =  1.87E-05,  avg # of iterations =  7.0

     negative rho (up, down):  2.465E-03 0.000E+00

     total cpu time spent up to now is    11349.5 secs

     total energy              =  -29548.16125352 Ry
     estimated scf accuracy    <       0.10464370 Ry

     iteration #  6     ecut=    50.00 Ry     beta= 0.70
     Davidson diagonalization with overlap
     ethr =  8.12E-06,  avg # of iterations =  7.0

     negative rho (up, down):  2.467E-03 0.000E+00

     total cpu time spent up to now is    11732.0 secs

     total energy              =  -29548.16679879 Ry
     estimated scf accuracy    <       0.12300005 Ry

     iteration #  7     ecut=    50.00 Ry     beta= 0.70
     Davidson diagonalization with overlap
     ethr =  8.12E-06,  avg # of iterations =  2.0

     negative rho (up, down):  2.466E-03 0.000E+00

     total cpu time spent up to now is    12094.1 secs

     total energy              =  -29548.17552203 Ry
     estimated scf accuracy    <       0.01542488 Ry

     iteration #  8     ecut=    50.00 Ry     beta= 0.70
     Davidson diagonalization with overlap
     ethr =  1.20E-06,  avg # of iterations =  3.0

     negative rho (up, down):  2.460E-03 0.000E+00

     total cpu time spent up to now is    12456.2 secs

     total energy              =  -29548.17686812 Ry
     estimated scf accuracy    <       0.00575083 Ry

     iteration #  9     ecut=    50.00 Ry     beta= 0.70
     Davidson diagonalization with overlap
     ethr =  4.46E-07,  avg # of iterations =  2.0

     negative rho (up, down):  2.458E-03 0.000E+00

     total cpu time spent up to now is    12814.7 secs

     total energy              =  -29548.17724162 Ry
     estimated scf accuracy    <       0.00139843 Ry

     iteration # 10     ecut=    50.00 Ry     beta= 0.70
     Davidson diagonalization with overlap
     ethr =  1.09E-07,  avg # of iterations =  2.0

     negative rho (up, down):  2.459E-03 0.000E+00

     total cpu time spent up to now is    13174.8 secs

     total energy              =  -29548.17733600 Ry
     estimated scf accuracy    <       0.00090339 Ry

     iteration # 11     ecut=    50.00 Ry     beta= 0.70
     Davidson diagonalization with overlap
     ethr =  7.01E-08,  avg # of iterations =  2.0

     negative rho (up, down):  2.459E-03 0.000E+00

     total cpu time spent up to now is    13536.0 secs

     total energy              =  -29548.17740913 Ry
     estimated scf accuracy    <       0.00015126 Ry

     iteration # 12     ecut=    50.00 Ry     beta= 0.70
     Davidson diagonalization with overlap
     ethr =  1.17E-08,  avg # of iterations =  2.0

     negative rho (up, down):  2.459E-03 0.000E+00

     total cpu time spent up to now is    13903.5 secs

     total energy              =  -29548.17742343 Ry
     estimated scf accuracy    <       0.00006916 Ry

     iteration # 13     ecut=    50.00 Ry     beta= 0.70
     Davidson diagonalization with overlap
     ethr =  5.37E-09,  avg # of iterations =  2.0

     negative rho (up, down):  2.459E-03 0.000E+00

     total cpu time spent up to now is    14266.2 secs

     total energy              =  -29548.17742540 Ry
     estimated scf accuracy    <       0.00010691 Ry

     iteration # 14     ecut=    50.00 Ry     beta= 0.70
     Davidson diagonalization with overlap
     ethr =  5.37E-09,  avg # of iterations =  2.0

     negative rho (up, down):  2.459E-03 0.000E+00

     total cpu time spent up to now is    14628.0 secs

     total energy              =  -29548.17743344 Ry
     estimated scf accuracy    <       0.00002141 Ry

     iteration # 15     ecut=    50.00 Ry     beta= 0.70
     Davidson diagonalization with overlap
     ethr =  1.66E-09,  avg # of iterations =  2.0

     negative rho (up, down):  2.459E-03 0.000E+00

     total cpu time spent up to now is    14986.0 secs

     total energy              =  -29548.17743463 Ry
     estimated scf accuracy    <       0.00001008 Ry

     iteration # 16     ecut=    50.00 Ry     beta= 0.70
     Davidson diagonalization with overlap
     ethr =  7.83E-10,  avg # of iterations =  2.0

     negative rho (up, down):  2.459E-03 0.000E+00

     total cpu time spent up to now is    15348.7 secs

     total energy              =  -29548.17743537 Ry
     estimated scf accuracy    <       0.00000197 Ry

     iteration # 17     ecut=    50.00 Ry     beta= 0.70
     Davidson diagonalization with overlap
     ethr =  1.53E-10,  avg # of iterations =  2.0

     negative rho (up, down):  2.459E-03 0.000E+00

     total cpu time spent up to now is    15711.6 secs

     total energy              =  -29548.17743537 Ry
     estimated scf accuracy    <       0.00000326 Ry

     iteration # 18     ecut=    50.00 Ry     beta= 0.70
     Davidson diagonalization with overlap
     ethr =  1.53E-10,  avg # of iterations =  2.0

     negative rho (up, down):  2.459E-03 0.000E+00

     total cpu time spent up to now is    16071.7 secs

     End of self-consistent calculation

          k = 0.0000 0.0000 0.0000 ( 65383 PWs)   bands (ev):

  -130.3114-130.2558-130.2445-130.2419-130.1210-130.1096-130.0668-130.0612
  -130.0609-130.0552-130.0506-130.0364-129.6638-129.6340-129.5990-129.5931
  -129.5860-129.5851-129.5809-129.5778-129.1829-129.1684-129.1241-129.1185
  -129.1137-129.1124-129.1090-129.0937-128.9731-128.9224-128.9129-128.9033
  -127.3172-126.2504-126.2126-126.2041-126.1965-126.1552-126.1526-126.1417
  -126.1374-126.1288-126.1276-126.1256-126.1248-126.1237-126.1206-126.1168
  -126.1167-126.1156-126.1117-126.1110-126.1079-126.1056-126.1052-126.1012
  -126.1010-126.0999-126.0964-126.0947-126.0947-126.0913-126.0828-126.0795
   -86.3039 -86.2535 -86.2451 -86.2403 -86.1069 -86.1001 -86.0559 -86.0539
   -86.0515 -86.0430 -86.0395 -86.0319 -85.5248 -85.5221 -85.4687 -85.4668
   -85.4569 -85.4565 -85.4547 -85.4519 -84.7930 -84.7736 -84.7223 -84.7179
   -84.7118 -84.7103 -84.7091 -84.6944 -84.4069 -84.3434 -84.3343 -84.3241
   -83.7124 -83.6549 -83.6441 -83.6401 -83.6279 -83.5985 -83.5888 -83.5556
   -83.5476 -83.5456 -83.5422 -83.5417 -83.5375 -83.5363 -83.5315 -83.5184
   -83.4000 -83.3785 -83.3536 -83.3276 -83.3245 -83.3225 -83.3174 -83.3149
   -83.3137 -83.2987 -83.2932 -83.2854 -83.2799 -83.2782 -83.2733 -83.2725
   -83.0923 -83.0789 -83.0380 -83.0319 -83.0290 -83.0268 -83.0219 -83.0076
   -82.9745 -82.9372 -82.9289 -82.9192 -82.9158 -82.9112 -82.8627 -82.8593
   -82.8520 -82.8517 -82.8416 -82.8405 -82.6157 -82.6099 -82.5517 -82.5488
   -82.5428 -82.5400 -82.5331 -82.5323 -82.5254 -82.4843 -82.4759 -82.4619
   -81.8029 -81.3234 -81.2909 -80.5946 -80.5573 -80.5508 -80.5437 -80.4912
   -80.4844 -80.4797 -80.4743 -80.4687 -80.4667 -80.4658 -80.4633 -80.4595
   -80.4592 -80.4566 -80.4544 -80.4543 -80.4503 -80.4497 -80.4470 -80.4450
   -80.4435 -80.4425 -80.4391 -80.4385 -80.4373 -80.4326 -80.4325 -80.4226
   -80.4170 -80.4127 -80.3108 -80.3086 -80.2750 -80.2698 -80.2690 -80.2615
   -80.2599 -80.2459 -80.2420 -80.2228 -80.2132 -80.2130 -80.2114 -80.2068
   -80.2039 -80.2028 -80.2016 -80.1989 -80.1964 -80.1957 -80.1915 -80.1913
   -80.1908 -80.1879 -80.1864 -80.1862 -80.1828 -80.1825 -80.1802 -80.1802
   -80.1785 -80.1780 -80.1773 -80.1760 -80.1741 -80.1733 -80.1718 -80.1712
   -80.1712 -80.1707 -80.1705 -80.1690 -80.1685 -80.1677 -80.1676 -80.1661
   -80.1628 -80.1625 -80.1612 -80.1594 -80.1588 -80.1560 -80.1554 -80.1549
   -80.1536 -80.1531 -80.1501 -80.1446 -80.1437 -80.1410 -80.1340 -80.1321
   -22.9987 -15.4230 -15.4215 -15.3617 -15.3613 -15.3394 -15.3387 -15.3218
   -15.3212 -15.1412 -15.1344 -15.0913 -15.0866 -15.0574 -15.0514 -15.0339
   -15.0308 -14.2352 -14.1608 -14.1458 -14.1262 -13.6252 -13.6188 -13.5960
   -13.5736 -13.5731 -13.5585 -13.5537 -13.5337 -13.5320 -13.5286 -13.5093
   -13.5048 -13.5042 -13.4867 -13.4746 -13.4718 -13.4573 -13.3954 -13.3939
   -13.3900 -13.3825 -13.3709 -13.3669 -13.3633 -13.3301 -13.2789 -13.2654
   -13.2268 -13.1495 -13.1438 -13.1085 -13.1051 -12.9828 -12.9724 -12.9466
   -12.9450 -12.5648 -12.1102 -11.9707 -11.9510 -11.9089 -11.9065 -11.8837
   -11.8808 -11.8715 -11.8588 -11.7424 -11.6929 -11.6679 -11.6671 -11.6609
   -11.6565 -11.6471 -11.6377 -11.6369 -11.5952 -11.5933 -11.5661 -11.5600
   -11.5412 -11.5353 -11.4932 -11.3548 -11.3409 -11.2187 -11.1681 -11.1367
   -11.1314 -11.1145 -11.0927 -11.0824 -11.0788 -11.0780 -11.0691 -11.0672
   -11.0562 -10.8395 -10.7694 -10.7628 -10.7431 -10.7416 -10.6679 -10.6585
   -10.5385 -10.2985 -10.2556 -10.2465 -10.2386 -10.1010  -9.9711  -9.9373
    -9.9314  -9.9170  -9.9133  -9.9000  -9.8955  -9.6034  -9.5736  -9.5573
    -9.5365  -9.5253  -9.5180  -9.5136  -9.4915  -9.4817  -9.4512  -9.4273
    -9.3917  -9.3093  -9.1740  -9.0385  -8.9721  -8.9599  -8.9153  -8.8772
    -8.8730  -8.8466  -8.8339  -8.8171  -8.7751  -8.7683  -8.7563  -8.7516
    -8.7456  -8.7235  -8.7211  -8.6997  -8.6973  -8.6907  -8.6816  -8.6683
    -8.6345  -8.6089  -8.5989  -8.5884  -8.5823  -8.5695  -8.5316  -8.5280
    -8.5060  -8.4888  -8.4835  -8.4698  -8.4582  -8.4539  -8.4533  -8.4078
    -8.3920  -8.3653  -8.3610  -8.2411  -8.1951  -8.0575  -8.0009  -7.9498
    -7.8931  -7.8572  -7.8184  -7.8141  -7.7998  -7.7953  -7.7734  -7.7693
    -7.7197  -7.6904  -7.6674  -7.6279  -7.6167  -7.5500  -7.5431  -7.5242
    -7.5161  -7.5086  -7.4926  -7.4721  -7.4444  -7.4100  -7.3257  -7.3196
    -7.3085  -7.3066  -7.2842  -7.2755  -7.2634  -7.2569  -7.2481  -7.2412
    -7.2323  -7.2296  -7.2266  -7.2221  -7.2153  -7.1931  -7.1832  -7.1776
    -7.1459  -7.1095  -7.1054  -7.0953  -7.0735  -7.0698  -7.0654  -7.0549
    -7.0465  -7.0146  -7.0130  -7.0055  -7.0024  -7.0006  -6.9842  -6.9796
    -6.9772  -6.9710  -6.9685  -6.9559  -6.9499  -6.9422  -6.9309  -6.9230
    -6.9071  -6.9059  -6.9047  -6.8934  -6.8877  -6.8853  -6.8819  -6.8792
    -6.8748  -6.8688  -6.8672  -6.8639  -6.8552  -6.8494  -6.8414  -6.8329
    -6.8260  -6.8258  -6.8225  -6.8199  -6.8142  -6.8086  -6.8004  -6.7995
    -6.7961  -6.7916  -6.7885  -6.7838  -6.7820  -6.7715  -6.7704  -6.7566
    -6.7543  -6.7503  -6.7409  -6.7389  -6.7326  -6.7303  -6.7254  -6.7241
    -6.7231  -6.7205  -6.7195  -6.7164  -6.7119  -6.7017  -6.6966  -6.6895
    -6.6816  -6.6786  -6.6718  -6.6595  -6.6581  -6.6469  -6.6400  -6.6321
    -6.6258  -6.6155  -6.6127  -6.6069  -6.6050  -6.6024  -6.5903  -6.5867
    -6.5758  -6.5728  -6.5480  -6.5431  -6.5235  -6.4974  -6.4401  -6.4306
    -6.4236  -6.3651  -6.3349  -6.3308  -6.3299  -6.3171  -6.2362  -6.2244
    -6.1855  -6.1474  -6.1333  -6.1128  -6.1108  -6.1018  -6.0906  -6.0447
    -6.0415  -5.9917  -5.9862  -5.9772  -5.9210  -5.9187  -5.8931  -5.8901
    -5.8284  -5.3515  -5.3165  -5.1923  -4.8554  -4.8498  -4.7481  -4.7294
    -4.6482  -4.4791  -4.3040  -4.1425  -3.9929  -3.9861  -3.9647  -3.9118
    -3.8010  -3.7879  -3.2695  -2.7604  -2.7202  -2.7035  -2.6709  -2.6483
    -2.5719  -2.4041  -2.3521  -2.0979  -1.5246  -1.0532  -1.0463  -0.7405
    -0.6994  -0.3262  -0.2831  -0.1954  -0.1778  -0.1625  -0.1282   0.0635
     0.0859   0.3626   0.3771   0.4042   0.4488   0.4565   0.5399   0.9051
     1.2409   1.3105   1.3307   1.3425   1.3545   1.3689   1.3883   1.5412
     1.5840   1.6047   1.7179   1.8332   1.8454   1.9826   2.2673   2.2948
     2.3150   2.3250   2.5086   2.5693   2.6044   2.7175   2.8955   3.0366
     3.0440   3.0619   3.0812   3.0979   3.2522   3.4097   3.4508   3.9259
     3.9456   3.9500   3.9536   4.1647   4.2546   4.2931   4.3389   4.4917
     4.6412   4.9496   5.0861   5.1004   5.1528   5.1993   5.2133   5.2567
     5.2629   5.2791   5.3046   5.3472   5.3976   5.4937   5.5084   5.5614
     5.6665   5.6772   5.6953   5.7273   5.7391   5.7697   5.9095   5.9296
     5.9829   6.0656   6.1443   6.2178   6.2795   6.2850   6.3086   6.3194
     6.3701   6.3770   6.3869   6.4721   6.4951   6.6149   6.7086   6.7640
     6.7918   6.8348   6.8378   6.8879   6.9381   7.0002   7.0131   7.0362
     7.0435   7.0716   7.1053   7.1139   7.1193   7.1208   7.1331   7.1508
     7.1773   7.2044   7.3096   7.3613   7.4789   7.5838   7.6982   7.7820
     7.8481   7.8864   7.9086   7.9666   7.9954   8.0191   8.0435   8.0454
     8.0849   8.1453   8.1647   8.2596   8.3181   8.3617   8.3759   8.3984
     8.4368   8.4643   8.4769   8.5065   8.5206   8.5234   8.5737   8.5961
     8.6136   8.6346   8.6392   8.6956   8.7278

     the Fermi energy is     1.3528 ev

!    total energy              =  -29548.17743496 Ry
     estimated scf accuracy    <       0.00000088 Ry
     smearing contrib. (-TS)   =      -0.03690043 Ry
     internal energy E=F+TS    =  -29548.14053452 Ry

     The total energy is F=E-TS. E is the sum of the following terms:
     one-electron contribution = -231196.46855895 Ry
     hartree contribution      =  115390.74570784 Ry
     xc contribution           =   -2733.61767444 Ry
     ewald contribution        =   89000.71826462 Ry
     one-center paw contrib.   =      -9.51827359 Ry

     convergence has been achieved in  18 iterations

     negative rho (up, down):  2.459E-03 0.000E+00

     Forces acting on atoms (cartesian axes, Ry/au):

     atom    1 type  1   force =     0.36451906   -0.14353587   -0.51416795
     atom    2 type  1   force =     0.36236304   -0.14426663   -0.51373157
     atom    3 type  1   force =     0.36567316   -0.14290255   -0.51325781
     atom    4 type  1   force =     0.36370751   -0.14177919   -0.51457392
     atom    5 type  1   force =     0.36342744   -0.14184048   -0.51867559
     atom    6 type  1   force =     0.36463403   -0.14316757   -0.51885762
     atom    7 type  1   force =     0.36430356   -0.14343305   -0.51834973
     atom    8 type  1   force =     0.36323799   -0.14294549   -0.51879072
     atom    9 type  1   force =     0.36436960   -0.14294659   -0.51696911
     atom   10 type  1   force =     0.36416729   -0.14366040   -0.52026385
     atom   11 type  1   force =     0.36533431   -0.14301827   -0.51673096
     atom   12 type  1   force =     0.36407085   -0.14378476   -0.51371663
     atom   13 type  1   force =     0.36547645   -0.14424087   -0.51529910
     atom   14 type  1   force =     0.36558915   -0.14320244   -0.51513293
     atom   15 type  1   force =     0.36629517   -0.13802135   -0.51815337
     atom   16 type  1   force =     0.36301184   -0.14848361   -0.51722369
     atom   17 type  1   force =    -0.36568208    0.14334247    0.51453163
     atom   18 type  1   force =    -0.36469819    0.14314134    0.51500754
     atom   19 type  1   force =    -0.36442254    0.14309782    0.51712756
     atom   20 type  1   force =    -0.36511725    0.14392970    0.51516809
     atom   21 type  1   force =    -0.36506477    0.14283981    0.51774915
     atom   22 type  1   force =    -0.38016696    0.13927114    0.50021065
     atom   23 type  1   force =    -0.36941602    0.15376181    0.50800305
     atom   24 type  1   force =    -0.36459673    0.14427591    0.51786536
     atom   25 type  1   force =    -0.36707952    0.11812168    0.51034894
     atom   26 type  1   force =    -0.19927166    0.19861913    0.22492592
     atom   27 type  1   force =    -0.35689582    0.15730036    0.51279389
     atom   28 type  1   force =    -0.36525870    0.14342915    0.51745385
     atom   29 type  1   force =    -0.36269981    0.14403432    0.51606361
     atom   30 type  1   force =    -0.36427568    0.14132184    0.51564110
     atom   31 type  1   force =    -0.36305834    0.14280805    0.51536868
     atom   32 type  1   force =    -0.36296858    0.14261188    0.51521213
     atom   33 type  1   force =    -0.68239810    0.26795155    0.89454084
     atom   34 type  1   force =    -0.68712660    0.26934200    0.89279572
     atom   35 type  1   force =    -0.68150307    0.26768803    0.89591352
     atom   36 type  1   force =    -0.68484297    0.27001492    0.89309992
     atom   37 type  1   force =    -0.67976094    0.27064160    0.89262248
     atom   38 type  1   force =    -0.69633601    0.28348234    0.86816290
     atom   39 type  1   force =    -0.69315294    0.26577893    0.88078594
     atom   40 type  1   force =    -0.68143869    0.26439637    0.89170742
     atom   41 type  1   force =    -0.67597243    0.26756021    0.89043335
     atom   42 type  1   force =    -0.63404860    0.24499444    0.84193774
     atom   43 type  1   force =    -0.67844977    0.26477369    0.89270265
     atom   44 type  1   force =    -0.68733456    0.27068784    0.89360234
     atom   45 type  1   force =    -0.68327072    0.26865973    0.89555717
     atom   46 type  1   force =    -0.68387408    0.26720608    0.89532268
     atom   47 type  1   force =    -0.68502244    0.26886691    0.89690807
     atom   48 type  1   force =    -0.68546646    0.26855651    0.89631877
     atom   49 type  1   force =     0.68151321   -0.26685716   -0.89047273
     atom   50 type  1   force =     0.68341866   -0.26853564   -0.89534789
     atom   51 type  1   force =     0.68108216   -0.26765228   -0.89479067
     atom   52 type  1   force =     0.68362271   -0.26662379   -0.89549213
     atom   53 type  1   force =     0.67976926   -0.26897425   -0.89529349
     atom   54 type  1   force =     0.67881516   -0.26712674   -0.89725712
     atom   55 type  1   force =     0.68017726   -0.26592589   -0.89656300
     atom   56 type  1   force =     0.67943530   -0.26595686   -0.89468953
     atom   57 type  1   force =     0.68482742   -0.28382784   -0.89350868
     atom   58 type  1   force =     0.67999497   -0.26500465   -0.89610561
     atom   59 type  1   force =     0.68998720   -0.26126919   -0.89300744
     atom   60 type  1   force =     0.68924092   -0.27068006   -0.89059030
     atom   61 type  1   force =     0.68617349   -0.27301261   -0.89598029
     atom   62 type  1   force =     0.68966580   -0.26493354   -0.89617703
     atom   63 type  1   force =     0.68288244   -0.27119775   -0.89480539
     atom   64 type  1   force =     0.68328203   -0.26739375   -0.89332991
     atom   65 type  2   force =    -0.13311220    0.06816354    0.10478217
     atom   66 type  3   force =    -0.04056502   -0.09914331    0.27911409
     atom   67 type  3   force =    -0.00972018   -0.00532665    0.04752685

     Total force =     7.475307     Total SCF correction =     0.012138
     Energy error            =      1.8E+01 Ry
     Gradient error          =      9.0E-01 Ry/Bohr

     number of scf cycles    =   2
     number of bfgs steps    =   1

     energy             old  =  -29529.8487428657 Ry
     energy             new  =  -29548.1774349576 Ry

     CASE: energy            _new < energy            _old

     new trust radius        =       0.8000000000 bohr
     new conv_thr            =       0.0000010000 Ry


ATOMIC_POSITIONS (angstrom)
Zn               2.1935746107        0.5422928509       -0.2519952158
Zn               3.1490587947        2.9750625892       -0.2522868504
Zn               4.1069617378        5.4089330840       -0.2522620701
Zn               5.0619357695        7.8425799402       -0.2525178122
Zn               5.7664506069        0.5431205523       -0.2539434293
Zn               6.7230017961        2.9760042056       -0.2542169535
Zn               7.6789618761        5.4090169110       -0.2538114218
Zn               8.6352206099        7.8425319961       -0.2539129277
Zn               9.3411866876        0.5422216499       -0.2532623230
Zn              10.2974582982        2.9753899677       -0.2536395786
Zn              11.2541817317        5.4091111580       -0.2534029847
Zn              12.2101276505        7.8416054445       -0.2526871351
Zn              12.9148416253        0.5426718787       -0.2522171238
Zn              13.8707914135        2.9753674063       -0.2521891672
Zn              14.8276407840        5.4109618447       -0.2529973970
Zn              15.7828207151        7.8401889152       -0.2526591472
Zn               2.0849145287        0.5850004300        3.5697774732
Zn               3.0414636933        3.0181869454        3.5700258212
Zn               3.9980292500        5.4512270432        3.5709463558
Zn               4.9537933634        7.8847702831        3.5699999493
Zn               5.6589912261        0.5853247962        3.5705406339
Zn               6.6047869405        3.0165548437        3.5620812170
Zn               7.5678768541        5.4576805733        3.5654238728
Zn               8.5276337689        7.8847487304        3.5704497630
Zn               9.2327042331        0.5723689828        3.5660704103
Zn              10.2744599694        3.0372722687        3.4303076716
Zn              11.1496622283        5.4576206473        3.5676634508
Zn              12.1012310479        7.8846319822        3.5702322090
Zn              12.8070207788        0.5852274204        3.5702501122
Zn              13.7627305321        3.0176340483        3.5700953149
Zn              14.7194526047        5.4513550009        3.5703090543
Zn              15.6757214057        7.8843226585        3.5701284388
Zn               3.2179471135        0.1397476911        2.2536777084
Zn               4.1728571816        2.5733242480        2.2527392935
Zn               5.1313875479        5.0059022499        2.2538851222
Zn               6.0861605612        7.4398760770        2.2531244131
Zn               6.7929488764        0.1406477376        2.2529746241
Zn               7.7415166736        2.5768505340        2.2377713819
Zn               8.7003105322        5.0068186897        2.2455299139
Zn               9.6608361932        7.4382941907        2.2524796851
Zn              10.3679049909        0.1395035342        2.2524130447
Zn              11.3385876397        2.5651739652        2.2359614171
Zn              12.2793844009        5.0051881156        2.2534880067
Zn              13.2325140115        7.4401734979        2.2530616736
Zn              13.9393732630        0.1400436484        2.2538567854
Zn              14.8952835063        2.5725985904        2.2537178925
Zn              15.8510266912        5.0063983450        2.2545329622
Zn              16.8073101645        7.4396566081        2.2540847609
Zn               1.0603577160        0.9880338627        1.0653558476
Zn               2.0168353413        3.4208562376        1.0632325218
Zn               2.9722452424        5.8544266139        1.0635176662
Zn               3.9294197053        8.2877205934        1.0631649937
Zn               4.6337456667        0.9873965108        1.0629788386
Zn               5.5892452411        3.4213370372        1.0618990732
Zn               6.5460982301        5.8546937848        1.0620747797
Zn               7.5026202284        8.2878474463        1.0631462329
Zn               8.2088697160        0.9834553466        1.0650076545
Zn               9.1625446875        3.4224746395        1.0609614037
Zn              10.1227850784        5.8560080849        1.0648642018
Zn              11.0785994792        8.2867472580        1.0661378203
Zn              11.7840000197        0.9852368545        1.0619382821
Zn              12.7416515841        3.4218736933        1.0622185346
Zn              13.6945488064        5.8531878326        1.0632850840
Zn              14.6510233533        8.2874150630        1.0637430135
O                8.9560390612        3.2402116033        4.4555066797
H                9.8778564921        2.7028853642        4.4669340416
H                8.7267198706        3.0418534022        5.3308734347



     Writing config-only to output data dir /home/ys/Research/PSID_server_room/qe/zinc_surface_water.relax/Zn_101_water/pwscf.save/ :
     XML data file
     NEW-OLD atomic charge density approx. for the potential

     negative rho (up, down):  5.163E-03 0.000E+00

     total cpu time spent up to now is    16244.7 secs

     Self-consistent Calculation

     iteration #  1     ecut=    50.00 Ry     beta= 0.70
     Davidson diagonalization with overlap
     ethr =  1.00E-06,  avg # of iterations = 16.0

     negative rho (up, down):  1.771E-03 0.000E+00

     total cpu time spent up to now is    17922.9 secs

     total energy              =  -29571.65930700 Ry
     estimated scf accuracy    <       1.10653376 Ry

     iteration #  2     ecut=    50.00 Ry     beta= 0.70
     Davidson diagonalization with overlap
     c_bands:  2 eigenvalues not converged
     ethr =  8.59E-05,  avg # of iterations = 20.0

     negative rho (up, down):  2.141E-03 0.000E+00

     total cpu time spent up to now is    18467.1 secs

     total energy              =  -29571.72037847 Ry
     estimated scf accuracy    <       0.97188791 Ry

     iteration #  3     ecut=    50.00 Ry     beta= 0.70
     Davidson diagonalization with overlap
     ethr =  7.55E-05,  avg # of iterations =  7.0

     negative rho (up, down):  2.402E-03 0.000E+00

     total cpu time spent up to now is    18934.6 secs

     total energy              =  -29571.76962184 Ry
     estimated scf accuracy    <       1.12480196 Ry

     iteration #  4     ecut=    50.00 Ry     beta= 0.70
     Davidson diagonalization with overlap
     ethr =  7.55E-05,  avg # of iterations =  5.0

     negative rho (up, down):  2.443E-03 0.000E+00

     total cpu time spent up to now is    19317.4 secs

     total energy              =  -29571.88126735 Ry
     estimated scf accuracy    <       1.10004607 Ry

     iteration #  5     ecut=    50.00 Ry     beta= 0.70
     Davidson diagonalization with overlap
     ethr =  7.55E-05,  avg # of iterations =  3.0

     negative rho (up, down):  2.480E-03 0.000E+00

     total cpu time spent up to now is    19686.8 secs

     total energy              =  -29571.94591270 Ry
     estimated scf accuracy    <       0.34324347 Ry

     iteration #  6     ecut=    50.00 Ry     beta= 0.70
     Davidson diagonalization with overlap
     ethr =  2.66E-05,  avg # of iterations =  3.0

     negative rho (up, down):  2.477E-03 0.000E+00

     total cpu time spent up to now is    20056.7 secs

     total energy              =  -29571.97715937 Ry
     estimated scf accuracy    <       0.06689122 Ry

     iteration #  7     ecut=    50.00 Ry     beta= 0.70
     Davidson diagonalization with overlap
     ethr =  5.19E-06,  avg # of iterations = 14.0

     negative rho (up, down):  2.470E-03 0.000E+00

     total cpu time spent up to now is    20435.0 secs

     total energy              =  -29571.98229557 Ry
     estimated scf accuracy    <       0.02266583 Ry

     iteration #  8     ecut=    50.00 Ry     beta= 0.70
     Davidson diagonalization with overlap
     ethr =  1.76E-06,  avg # of iterations =  3.0

     negative rho (up, down):  2.464E-03 0.000E+00

     total cpu time spent up to now is    20798.6 secs

     total energy              =  -29571.98376988 Ry
     estimated scf accuracy    <       0.00438442 Ry

     iteration #  9     ecut=    50.00 Ry     beta= 0.70
     Davidson diagonalization with overlap
     ethr =  3.40E-07,  avg # of iterations =  2.0

     negative rho (up, down):  2.461E-03 0.000E+00

     total cpu time spent up to now is    21159.8 secs

     total energy              =  -29571.98409528 Ry
     estimated scf accuracy    <       0.00380552 Ry

     iteration # 10     ecut=    50.00 Ry     beta= 0.70
     Davidson diagonalization with overlap
     ethr =  2.95E-07,  avg # of iterations =  2.0

     negative rho (up, down):  2.461E-03 0.000E+00

     total cpu time spent up to now is    21519.8 secs

     total energy              =  -29571.98438989 Ry
     estimated scf accuracy    <       0.00114869 Ry

     iteration # 11     ecut=    50.00 Ry     beta= 0.70
     Davidson diagonalization with overlap
     ethr =  8.92E-08,  avg # of iterations =  2.0

     negative rho (up, down):  2.462E-03 0.000E+00

     total cpu time spent up to now is    21880.2 secs

     total energy              =  -29571.98447799 Ry
     estimated scf accuracy    <       0.00061225 Ry

     iteration # 12     ecut=    50.00 Ry     beta= 0.70
     Davidson diagonalization with overlap
     ethr =  4.75E-08,  avg # of iterations =  2.0

     negative rho (up, down):  2.462E-03 0.000E+00

     total cpu time spent up to now is    22241.8 secs

     total energy              =  -29571.98453665 Ry
     estimated scf accuracy    <       0.00004595 Ry

     iteration # 13     ecut=    50.00 Ry     beta= 0.70
     Davidson diagonalization with overlap
     ethr =  3.57E-09,  avg # of iterations =  2.0

     negative rho (up, down):  2.462E-03 0.000E+00

     total cpu time spent up to now is    22616.9 secs

     total energy              =  -29571.98453919 Ry
     estimated scf accuracy    <       0.00003851 Ry

     iteration # 14     ecut=    50.00 Ry     beta= 0.70
     Davidson diagonalization with overlap
     ethr =  2.99E-09,  avg # of iterations =  2.0

     negative rho (up, down):  2.462E-03 0.000E+00

     total cpu time spent up to now is    22978.0 secs

     total energy              =  -29571.98454283 Ry
     estimated scf accuracy    <       0.00001832 Ry

     iteration # 15     ecut=    50.00 Ry     beta= 0.70
     Davidson diagonalization with overlap
     ethr =  1.42E-09,  avg # of iterations =  2.0

     negative rho (up, down):  2.462E-03 0.000E+00

     total cpu time spent up to now is    23339.5 secs

     total energy              =  -29571.98454329 Ry
     estimated scf accuracy    <       0.00002068 Ry

     iteration # 16     ecut=    50.00 Ry     beta= 0.70
     Davidson diagonalization with overlap
     ethr =  1.42E-09,  avg # of iterations =  2.0

     negative rho (up, down):  2.462E-03 0.000E+00

     total cpu time spent up to now is    23698.8 secs

     total energy              =  -29571.98454442 Ry
     estimated scf accuracy    <       0.00000687 Ry

     iteration # 17     ecut=    50.00 Ry     beta= 0.70
     Davidson diagonalization with overlap
     ethr =  5.33E-10,  avg # of iterations =  2.0

     negative rho (up, down):  2.462E-03 0.000E+00

     total cpu time spent up to now is    24058.5 secs

     total energy              =  -29571.98454486 Ry
     estimated scf accuracy    <       0.00000571 Ry

     iteration # 18     ecut=    50.00 Ry     beta= 0.70
     Davidson diagonalization with overlap
     ethr =  4.43E-10,  avg # of iterations =  1.0

     negative rho (up, down):  2.461E-03 0.000E+00

     total cpu time spent up to now is    24364.6 secs

     End of self-consistent calculation

          k = 0.0000 0.0000 0.0000 ( 65383 PWs)   bands (ev):

  -127.7008-126.9905-126.6882-126.6777-126.6739-126.6590-126.6560-126.6514
  -126.6483-126.6456-126.6430-126.6252-126.6232-126.6182-126.6130-126.6118
  -126.6106-126.6093-126.6089-126.6031-126.5998-126.5980-126.5966-126.5887
  -126.5845-126.5750-126.5723-126.5693-126.5671-126.5589-126.5577-126.5537
  -126.5480-125.7860-125.7373-125.7217-125.6957-125.6956-125.6733-125.6696
  -125.6659-125.6564-125.6526-125.6475-125.6473-125.6466-125.6337-125.6323
  -125.6257-125.6214-125.6077-125.6037-125.6027-125.5975-125.5974-125.5869
  -125.5868-125.5816-125.5773-125.5772-125.5587-125.5509-125.5467-125.5361
   -82.7086 -81.7559 -81.5783 -81.2642 -81.2528 -81.2411 -81.2227 -81.2202
   -81.2082 -81.1945 -81.1943 -81.1833 -81.1832 -81.1795 -81.1794 -81.1616
   -81.1555 -81.1402 -81.1385 -81.1342 -81.1291 -81.1085 -81.1084 -81.0994
   -81.0930 -81.0679 -81.0629 -81.0439 -81.0439 -81.0437 -81.0289 -81.0221
   -81.0170 -81.0052 -80.9940 -80.9764 -80.9698 -80.8134 -80.8037 -80.7928
   -80.7842 -80.7651 -80.7626 -80.7609 -80.7492 -80.7486 -80.7445 -80.7370
   -80.7222 -80.7189 -80.7179 -80.7137 -80.7089 -80.7069 -80.7013 -80.7002
   -80.6866 -80.6830 -80.6806 -80.6785 -80.6781 -80.6678 -80.6666 -80.6656
   -80.6650 -80.6620 -80.6592 -80.6591 -80.6559 -80.6544 -80.6451 -80.6423
   -80.6390 -80.6336 -80.6304 -80.6297 -80.6265 -80.6254 -80.6250 -80.6219
   -80.6217 -80.6184 -80.6178 -80.6171 -80.6141 -80.6096 -80.6076 -80.6041
   -80.6018 -80.5992 -80.5970 -80.5918 -80.5857 -80.5815 -80.5798 -80.5775
   -80.5723 -80.5706 -80.5647 -80.0408 -79.9962 -79.9858 -79.9611 -79.9607
   -79.9365 -79.9342 -79.9321 -79.9189 -79.9178 -79.9137 -79.9113 -79.9062
   -79.9034 -79.9001 -79.8853 -79.8835 -79.8741 -79.8676 -79.8672 -79.8629
   -79.8597 -79.8593 -79.8554 -79.8505 -79.8462 -79.8452 -79.8443 -79.8418
   -79.8211 -79.8161 -79.8160 -79.8122 -79.8023 -79.7988 -79.7921 -79.7906
   -79.7666 -79.7654 -79.7652 -79.7631 -79.7496 -79.7478 -79.7477 -79.7403
   -79.7395 -79.7383 -79.7331 -79.7244 -79.7219 -79.7219 -79.7214 -79.7202
   -79.7189 -79.7187 -79.7136 -79.7075 -79.7057 -79.7047 -79.7006 -79.6990
   -79.6968 -79.6963 -79.6955 -79.6846 -79.6838 -79.6829 -79.6795 -79.6760
   -79.6746 -79.6730 -79.6726 -79.6714 -79.6678 -79.6646 -79.6633 -79.6616
   -79.6553 -79.6551 -79.6540 -79.6526 -79.6516 -79.6467 -79.6433 -79.6361
   -79.6342 -79.6314 -79.6249 -79.6212 -79.6168 -79.6146 -79.6108 -79.5989
   -23.6444 -13.0441 -11.0293 -10.7587 -10.4467 -10.2392 -10.2159  -9.9200
    -9.7987  -9.7947  -9.7796  -9.7502  -9.7370  -9.7146  -9.6839  -9.6728
    -9.6667  -9.6628  -9.6515  -9.6484  -9.6375  -9.6368  -9.6314  -9.6080
    -9.6051  -9.6022  -9.5942  -9.5905  -9.5784  -9.5614  -9.5461  -9.5410
    -9.5327  -9.5030  -9.4894  -9.4391  -9.1973  -9.1354  -9.0711  -9.0506
    -9.0410  -9.0368  -9.0135  -9.0076  -8.9994  -8.9957  -8.9901  -8.9647
    -8.9624  -8.9554  -8.9346  -8.9069  -8.9053  -8.8915  -8.8802  -8.8638
    -8.8566  -8.8361  -8.8114  -8.7918  -8.7729  -8.7173  -8.6939  -8.6851
    -8.6563  -8.6531  -8.6507  -8.6415  -8.6360  -8.6236  -8.6145  -8.6123
    -8.5938  -8.5773  -8.5590  -8.5462  -8.5423  -8.5265  -8.5047  -8.4807
    -8.4501  -8.4440  -8.4383  -8.4061  -8.3577  -8.3515  -8.3169  -8.3150
    -8.3055  -8.2873  -8.2757  -8.2454  -8.2090  -8.1672  -8.1299  -8.1219
    -8.0833  -8.0556  -8.0075  -8.0016  -7.9929  -7.9911  -7.9785  -7.9585
    -7.9534  -7.9385  -7.9278  -7.9029  -7.8956  -7.8931  -7.8856  -7.8777
    -7.8723  -7.8654  -7.8624  -7.8516  -7.8464  -7.8460  -7.8110  -7.8067
    -7.7837  -7.7760  -7.7719  -7.7445  -7.7405  -7.7270  -7.7043  -7.6625
    -7.6523  -7.6463  -7.6262  -7.6197  -7.6006  -7.5732  -7.5598  -7.5515
    -7.5470  -7.5316  -7.5139  -7.5048  -7.5036  -7.4987  -7.4929  -7.4773
    -7.4557  -7.4368  -7.3966  -7.3882  -7.3699  -7.3568  -7.3507  -7.3457
    -7.3412  -7.3296  -7.3109  -7.3083  -7.2985  -7.2941  -7.2870  -7.2708
    -7.2279  -7.2215  -7.2046  -7.2007  -7.1833  -7.1703  -7.1324  -7.0661
    -7.0365  -7.0204  -6.9983  -6.9678  -6.9616  -6.9396  -6.9326  -6.9242
    -6.8967  -6.8655  -6.8600  -6.8395  -6.8354  -6.8186  -6.8127  -6.8044
    -6.8033  -6.7983  -6.7803  -6.7636  -6.7518  -6.7188  -6.7073  -6.6951
    -6.6796  -6.6709  -6.6628  -6.6531  -6.6425  -6.6272  -6.6126  -6.6057
    -6.5976  -6.5738  -6.5709  -6.5648  -6.5458  -6.5322  -6.5263  -6.5165
    -6.5138  -6.4904  -6.4764  -6.4720  -6.4656  -6.4572  -6.4483  -6.4336
    -6.4276  -6.4250  -6.4207  -6.4194  -6.4124  -6.4067  -6.4042  -6.3988
    -6.3969  -6.3914  -6.3874  -6.3807  -6.3796  -6.3679  -6.3651  -6.3593
    -6.3575  -6.3452  -6.3406  -6.3363  -6.3340  -6.3185  -6.3103  -6.3061
    -6.3018  -6.2995  -6.2964  -6.2823  -6.2682  -6.2603  -6.2338  -6.2176
    -6.2092  -6.2056  -6.1965  -6.1793  -6.1637  -6.1590  -6.1527  -6.1481
    -6.1428  -6.1284  -6.1216  -6.1133  -6.1084  -6.1057  -6.0997  -6.0971
    -6.0919  -6.0906  -6.0852  -6.0799  -6.0723  -6.0664  -6.0586  -6.0545
    -6.0484  -6.0442  -6.0374  -6.0324  -6.0282  -6.0257  -6.0162  -6.0063
    -6.0010  -5.9924  -5.9894  -5.9706  -5.9650  -5.9640  -5.9603  -5.9555
    -5.9462  -5.9372  -5.9255  -5.9182  -5.9098  -5.9037  -5.8944  -5.8926
    -5.8878  -5.8807  -5.8786  -5.8703  -5.8668  -5.8636  -5.8516  -5.8492
    -5.8474  -5.8423  -5.8397  -5.8289  -5.8258  -5.8208  -5.8104  -5.7823
    -5.7765  -5.7642  -5.7444  -5.7226  -5.6710  -5.6635  -5.6531  -5.6489
    -5.6330  -5.6280  -5.6036  -5.5899  -5.5859  -5.5759  -5.5650  -5.5453
    -5.5034  -5.4903  -5.4486  -5.4055  -5.3451  -5.3235  -5.2917  -5.2669
    -5.0948  -5.0700  -5.0445  -4.9420  -4.6060  -4.5818  -4.4354  -4.2747
    -3.4735  -3.4308  -2.9822  -2.9530  -2.9492  -2.9322  -2.8869  -2.8412
    -2.7999  -2.5559  -2.5344  -2.5004  -2.4053  -2.3988  -2.3807  -2.3780
    -2.2509  -2.0580  -2.0057  -1.0753  -1.0641  -0.9472  -0.9060  -0.8902
    -0.8757  -0.8166  -0.7220  -0.1814  -0.1723   0.0532   0.1236   0.1745
     0.2031   0.3192   0.4122   0.5421   0.5878   0.6227   0.6704   0.7938
     1.0369   1.1673   1.1841   1.2072   1.2957   1.4721   1.5620   1.6816
     1.9740   2.0738   2.3672   2.4306   2.4518   2.4588   2.4793   2.5004
     2.5654   2.6566   2.7411   2.7477   2.7785   2.8615   2.8641   2.8838
     3.2405   3.5286   3.5469   3.5800   3.6101   3.6548   3.7599   3.8490
     3.9301   3.9985   4.0181   4.0332   4.0687   4.1429   4.3168   4.3507
     4.4698   4.6310   4.6722   4.7260   4.8411   4.8433   4.8911   4.9021
     5.0225   5.1532   5.1854   5.2088   5.2248   5.2355   5.3741   5.4647
     5.5230   5.5419   5.5609   5.6131   5.7006   5.7375   5.7710   5.7877
     5.8793   5.8878   5.9656   5.9892   6.0318   6.0661   6.1070   6.1389
     6.1913   6.2046   6.2143   6.2986   6.3547   6.3776   6.5295   6.5649
     6.6020   6.6428   6.6482   6.6981   6.8217   6.8281   6.8354   6.8400
     6.9174   6.9845   7.0283   7.0636   7.0979   7.1209   7.1615   7.2372
     7.3219   7.4244   7.5478   7.5771   7.5978   7.6016   7.6102   7.6274
     7.6619   7.6656   7.6804   7.6992   7.7449   7.7994   7.8484   7.9601
     7.9944   8.0907   8.1091   8.1329   8.1619   8.1718   8.2335   8.2432
     8.2619   8.2998   8.3789   8.4147   8.4389   8.4429   8.4465   8.4924
     8.4998   8.6590   8.7013   8.7158   8.7514

     the Fermi energy is     1.2840 ev

!    total energy              =  -29571.98454474 Ry
     estimated scf accuracy    <       0.00000073 Ry
     smearing contrib. (-TS)   =      -0.01682349 Ry
     internal energy E=F+TS    =  -29571.96772125 Ry

     The total energy is F=E-TS. E is the sum of the following terms:
     one-electron contribution = -211762.08909751 Ry
     hartree contribution      =  105742.25364796 Ry
     xc contribution           =   -2718.14132345 Ry
     ewald contribution        =   79175.52476370 Ry
     one-center paw contrib.   =      -9.51571195 Ry

     convergence has been achieved in  18 iterations

     negative rho (up, down):  2.461E-03 0.000E+00

     Forces acting on atoms (cartesian axes, Ry/au):

     atom    1 type  1   force =     0.32551721   -0.12736688   -0.40089630
     atom    2 type  1   force =     0.32450826   -0.12939859   -0.40495950
     atom    3 type  1   force =     0.32576980   -0.12610773   -0.40014950
     atom    4 type  1   force =     0.32492543   -0.12865754   -0.40546774
     atom    5 type  1   force =     0.32484822   -0.12692977   -0.40877931
     atom    6 type  1   force =     0.32584539   -0.12631126   -0.40773391
     atom    7 type  1   force =     0.32511960   -0.12966160   -0.40808567
     atom    8 type  1   force =     0.32409278   -0.12703091   -0.40778851
     atom    9 type  1   force =     0.32682946   -0.12796889   -0.40739781
     atom   10 type  1   force =     0.32619198   -0.12836627   -0.41074660
     atom   11 type  1   force =     0.32495034   -0.12958249   -0.40528805
     atom   12 type  1   force =     0.32617967   -0.12741149   -0.40522562
     atom   13 type  1   force =     0.32837088   -0.13680199   -0.40998924
     atom   14 type  1   force =     0.33419513   -0.12336478   -0.41064563
     atom   15 type  1   force =     0.32369201   -0.13203226   -0.40558574
     atom   16 type  1   force =     0.32640734   -0.12378171   -0.40456678
     atom   17 type  1   force =    -0.32572873    0.12784834    0.40592753
     atom   18 type  1   force =    -0.32581264    0.13021091    0.40681239
     atom   19 type  1   force =    -0.32620357    0.12740313    0.40500441
     atom   20 type  1   force =    -0.32694646    0.12711146    0.40631951
     atom   21 type  1   force =    -0.32217647    0.12861268    0.40573535
     atom   22 type  1   force =    -0.34712737    0.12246993    0.38646969
     atom   23 type  1   force =    -0.33057752    0.14059815    0.39522022
[...]
   -79.1818 -79.1784 -79.1768 -79.1762 -79.1744 -79.1738 -79.1672 -79.1653
   -79.1608 -79.1574 -79.1551 -79.1528 -79.1527 -79.1525 -79.1450 -79.1432
   -79.1406 -79.1397 -79.1392 -79.1364 -79.1356 -79.1304 -79.1289 -79.1283
   -79.1229 -79.1189 -79.1188 -79.1176 -79.1154 -79.1140 -79.1135 -79.1089
   -79.1071 -79.1047 -79.1045 -79.1044 -79.1039 -79.1003 -79.0988 -79.0982
   -79.0958 -79.0935 -79.0883 -79.0828 -79.0819 -79.0795 -79.0767 -79.0753
   -79.0734 -79.0678 -79.0623 -79.0581 -79.0572 -79.0436 -79.0085 -79.0061
   -19.2461  -8.3173  -7.6586  -7.6260  -7.3391  -7.1269  -7.0902  -7.0656
    -7.0296  -7.0110  -6.9851  -6.9656  -6.9586  -6.9326  -6.9273  -6.9222
    -6.8762  -6.8487  -6.8372  -6.8258  -6.8165  -6.8074  -6.8000  -6.7963
    -6.7853  -6.7806  -6.7763  -6.7708  -6.7554  -6.7482  -6.7354  -6.7324
    -6.7215  -6.7188  -6.7097  -6.7023  -6.7002  -6.6967  -6.6910  -6.6875
    -6.6803  -6.6767  -6.6721  -6.6671  -6.6570  -6.6527  -6.6493  -6.6449
    -6.6409  -6.6388  -6.6339  -6.6255  -6.6234  -6.6182  -6.6082  -6.6048
    -6.6035  -6.5992  -6.5921  -6.5853  -6.5805  -6.5763  -6.5708  -6.5620
    -6.5523  -6.5473  -6.5415  -6.5306  -6.5239  -6.5192  -6.5157  -6.5140
    -6.5069  -6.5006  -6.4922  -6.4886  -6.4865  -6.4774  -6.4731  -6.4704
    -6.4673  -6.4623  -6.4593  -6.4548  -6.4497  -6.4434  -6.4406  -6.4363
    -6.4351  -6.4265  -6.4230  -6.4173  -6.4149  -6.4109  -6.4095  -6.4076
    -6.4031  -6.3920  -6.3893  -6.3797  -6.3744  -6.3716  -6.3640  -6.3556
    -6.3515  -6.3513  -6.3417  -6.3393  -6.3349  -6.3293  -6.3251  -6.3178
    -6.3137  -6.3130  -6.3066  -6.3039  -6.3020  -6.2971  -6.2929  -6.2852
    -6.2774  -6.2749  -6.2701  -6.2661  -6.2565  -6.2545  -6.2485  -6.2422
    -6.2366  -6.2240  -6.2139  -6.2101  -6.2080  -6.1990  -6.1948  -6.1847
    -6.1747  -6.1660  -6.1624  -6.1564  -6.1515  -6.1467  -6.1404  -6.1372
    -6.1358  -6.1343  -6.1296  -6.1196  -6.1106  -6.1058  -6.1011  -6.0943
    -6.0921  -6.0864  -6.0836  -6.0786  -6.0778  -6.0738  -6.0727  -6.0670
    -6.0573  -6.0533  -6.0508  -6.0400  -6.0367  -6.0307  -6.0282  -6.0252
    -6.0227  -6.0211  -6.0148  -6.0027  -5.9978  -5.9952  -5.9903  -5.9866
    -5.9809  -5.9731  -5.9721  -5.9675  -5.9620  -5.9530  -5.9503  -5.9492
    -5.9469  -5.9383  -5.9352  -5.9338  -5.9269  -5.9251  -5.9190  -5.9110
    -5.9085  -5.9017  -5.8999  -5.8867  -5.8813  -5.8772  -5.8637  -5.8608
    -5.8556  -5.8495  -5.8455  -5.8441  -5.8420  -5.8356  -5.8343  -5.8316
    -5.8256  -5.8213  -5.8195  -5.8167  -5.8141  -5.8086  -5.8047  -5.8038
    -5.8012  -5.7996  -5.7932  -5.7888  -5.7847  -5.7767  -5.7728  -5.7682
    -5.7660  -5.7623  -5.7613  -5.7579  -5.7545  -5.7508  -5.7501  -5.7478
    -5.7419  -5.7380  -5.7309  -5.7283  -5.7228  -5.7176  -5.7108  -5.7098
    -5.7082  -5.7020  -5.6996  -5.6985  -5.6961  -5.6931  -5.6906  -5.6896
    -5.6844  -5.6825  -5.6799  -5.6794  -5.6785  -5.6699  -5.6649  -5.6604
    -5.6552  -5.6506  -5.6426  -5.6360  -5.6332  -5.6302  -5.6238  -5.6211
    -5.6183  -5.6149  -5.6128  -5.6053  -5.5991  -5.5988  -5.5930  -5.5876
    -5.5856  -5.5842  -5.5776  -5.5773  -5.5705  -5.5648  -5.5610  -5.5589
    -5.5540  -5.5498  -5.5485  -5.5453  -5.5413  -5.5397  -5.5367  -5.5329
    -5.5286  -5.5268  -5.5239  -5.5178  -5.5115  -5.5077  -5.5052  -5.5027
    -5.4991  -5.4940  -5.4922  -5.4921  -5.4870  -5.4853  -5.4770  -5.4714
    -5.4706  -5.4664  -5.4577  -5.4507  -5.4498  -5.4430  -5.4375  -5.4285
    -5.4242  -5.4122  -5.4015  -5.3962  -5.3801  -5.3747  -5.3674  -5.3647
    -5.3448  -5.3357  -5.3249  -5.3240  -5.3219  -5.3040  -5.2635  -5.2536
    -5.2364  -5.2327  -5.0821  -4.9389  -4.6723  -4.6034  -4.6014  -4.4529
    -4.3735  -4.2862  -4.2738  -4.1963  -4.1085  -4.0219  -3.7043  -3.2692
    -3.0333  -2.8502  -2.7287  -2.6952  -2.5685  -2.5087  -2.4554  -2.2174
    -2.1567  -1.8978  -1.8670  -1.7318  -1.6399  -1.5602  -1.4655  -1.2468
    -1.1939  -0.9966  -0.9705  -0.9582  -0.8993  -0.8885  -0.7689  -0.5006
    -0.4888  -0.2337  -0.0619  -0.0288  -0.0021   0.0261   0.0391   0.0889
     0.1799   0.2095   0.2655   0.3887   0.4766   0.7512   0.7879   0.8503
     0.9827   1.0303   1.0876   1.1457   1.2236   1.2433   1.3108   1.3489
     1.3962   1.4503   1.5813   1.6584   1.8338   1.8416   1.9679   2.0643
     2.2211   2.5756   2.7042   2.7373   2.7668   2.8131   2.9070   2.9992
     3.0417   3.0828   3.2126   3.2559   3.3288   3.3446   3.4015   3.5798
     3.7438   3.7889   3.8551   3.8695   3.9937   4.1501   4.1856   4.1966
     4.3153   4.3278   4.3863   4.4031   4.4319   4.5511   4.6223   4.7915
     4.9132   4.9638   4.9971   5.1043   5.1288   5.2389   5.3312   5.3519
     5.4381   5.4783   5.5557   5.5821   5.5894   5.6338   5.6461   5.6575
     5.6933   5.7427   5.7769   5.8015   5.8183   5.8387   5.8557   5.9173
     5.9446   6.0916   6.1476   6.2134   6.2329   6.3280   6.3405   6.3483
     6.3760   6.4071   6.4500   6.4753   6.4984   6.5656   6.5739   6.5787
     6.6065   6.6170   6.6273   6.6897   6.7169   6.7813   6.8277   6.9253
     6.9608   7.0017   7.0408   7.0981   7.1249   7.1796   7.1967   7.2519
     7.2788   7.3230   7.3267   7.3619   7.3827   7.4373   7.4606   7.4985
     7.5633   7.6113   7.6805   7.7203   7.7489   7.7933   7.8329   7.8527
     7.9673   7.9830   7.9893   8.0138   8.0496   8.0514   8.0714   8.0863
     8.0898   8.1227   8.1263   8.1551   8.2267

     the Fermi energy is     1.1738 ev

!    total energy              =  -29581.48452481 Ry
     estimated scf accuracy    <       0.00000059 Ry
     smearing contrib. (-TS)   =      -0.02472970 Ry
     internal energy E=F+TS    =  -29581.45979511 Ry

     The total energy is F=E-TS. E is the sum of the following terms:
     one-electron contribution = -177453.77973263 Ry
     hartree contribution      =   88633.89612536 Ry
     xc contribution           =   -2706.95699234 Ry
     ewald contribution        =   61954.90945072 Ry
     one-center paw contrib.   =      -9.52864621 Ry

     convergence has been achieved in  18 iterations

     negative rho (up, down):  1.965E-03 0.000E+00

     Forces acting on atoms (cartesian axes, Ry/au):

     atom    1 type  1   force =     0.02461142   -0.00784375   -0.02528332
     atom    2 type  1   force =     0.02519188   -0.01086221   -0.02410429
     atom    3 type  1   force =     0.02545442   -0.01139204   -0.02079066
     atom    4 type  1   force =     0.02245007   -0.00761067   -0.02263768
     atom    5 type  1   force =     0.02520048   -0.01119011   -0.02697982
     atom    6 type  1   force =     0.02529261   -0.01425081   -0.02100726
     atom    7 type  1   force =     0.02846615   -0.00618702   -0.02197626
     atom    8 type  1   force =     0.02773130   -0.00914419   -0.02631690
     atom    9 type  1   force =     0.01191448   -0.01220768   -0.03454031
     atom   10 type  1   force =     0.02771107   -0.01537837   -0.01426961
     atom   11 type  1   force =     0.01883380    0.00153289   -0.03536207
     atom   12 type  1   force =     0.01804039   -0.00950224   -0.03437853
     atom   13 type  1   force =     0.02800986   -0.00650195   -0.02206827
     atom   14 type  1   force =     0.02279814   -0.01406879   -0.01967608
     atom   15 type  1   force =     0.02197661   -0.01063325   -0.01851556
     atom   16 type  1   force =     0.02593621   -0.00598974   -0.02032023
     atom   17 type  1   force =    -0.02672406    0.01300541    0.02017044
     atom   18 type  1   force =    -0.02926048    0.00863609    0.02361363
     atom   19 type  1   force =    -0.02443605    0.01121141    0.02323420
     atom   20 type  1   force =    -0.02581186    0.01057146    0.02331609
     atom   21 type  1   force =    -0.02685876    0.00923343    0.02268486
     atom   22 type  1   force =    -0.01778480    0.01290489    0.02708227
     atom   23 type  1   force =    -0.02759853    0.00439651    0.02874031
     atom   24 type  1   force =    -0.02655361    0.00921220    0.02237701
     atom   25 type  1   force =    -0.00407815    0.02935919    0.03661350
     atom   26 type  1   force =    -0.01223492   -0.03997919    0.03196238
     atom   27 type  1   force =    -0.01754747    0.02257928    0.02899795
     atom   28 type  1   force =    -0.02218572    0.02804662    0.02692456
     atom   29 type  1   force =    -0.02273803   -0.00100632    0.04015913
     atom   30 type  1   force =    -0.02117084    0.00975242    0.02747688
     atom   31 type  1   force =    -0.02760987    0.01006578    0.02453831
     atom   32 type  1   force =    -0.02633240    0.00876468    0.02368506
     atom   33 type  1   force =     0.02515175   -0.01296467   -0.02981652
     atom   34 type  1   force =     0.01688392   -0.01367011   -0.03198922
     atom   35 type  1   force =     0.02522384   -0.00880282   -0.03014313
     atom   36 type  1   force =     0.02241610   -0.00367701   -0.02990954
     atom   37 type  1   force =     0.02608292   -0.00110104   -0.02697435
     atom   38 type  1   force =     0.02233608   -0.00826506   -0.02813182
     atom   39 type  1   force =    -0.01306608    0.01763471   -0.05183224
     atom   40 type  1   force =     0.01809318    0.00475689   -0.03435193
     atom   41 type  1   force =     0.01396561   -0.01838986   -0.03191141
     atom   42 type  1   force =     0.03474928    0.00370133   -0.03243062
     atom   43 type  1   force =     0.03135176   -0.01271797   -0.02781046
     atom   44 type  1   force =     0.01979484   -0.00962998   -0.02844738
     atom   45 type  1   force =     0.02000219   -0.00793514   -0.02978956
     atom   46 type  1   force =     0.02146756   -0.00549340   -0.02777979
     atom   47 type  1   force =     0.02419383   -0.00865409   -0.02790664
     atom   48 type  1   force =     0.02357295   -0.01013203   -0.02525975
     atom   49 type  1   force =    -0.01922077    0.00680380    0.03539109
     atom   50 type  1   force =    -0.02010548    0.00842680    0.02972835
     atom   51 type  1   force =    -0.02222615    0.00888600    0.02721045
     atom   52 type  1   force =    -0.01938660    0.01089992    0.03002167
     atom   53 type  1   force =    -0.01631362    0.00485774    0.03049393
     atom   54 type  1   force =    -0.02403863    0.00856370    0.02533866
     atom   55 type  1   force =    -0.02094184    0.00832473    0.02634675
     atom   56 type  1   force =    -0.01923753    0.00739135    0.03087732
     atom   57 type  1   force =    -0.02217415    0.01528515    0.02565825
     atom   58 type  1   force =    -0.02052459    0.00722729    0.03312692
     atom   59 type  1   force =    -0.02377350    0.00938637    0.02250090
     atom   60 type  1   force =    -0.02266938    0.01368460    0.03059325
     atom   61 type  1   force =    -0.00557550    0.02709131    0.02211590
     atom   62 type  1   force =    -0.02613445   -0.01870383    0.02980900
     atom   63 type  1   force =    -0.02100187    0.02002286    0.03330251
     atom   64 type  1   force =    -0.03114633   -0.00761104    0.02868837
     atom   65 type  2   force =    -0.00765315    0.02826703   -0.06757199
     atom   66 type  3   force =     0.00098287   -0.04278362   -0.03008756
     atom   67 type  3   force =    -0.01177239   -0.01620381    0.08759086

     Total force =     0.335389     Total SCF correction =     0.009055
     Energy error            =      4.5E-01 Ry
     Gradient error          =      8.8E-02 Ry/Bohr

     number of scf cycles    =   7
     number of bfgs steps    =   6

     energy             old  =  -29581.0377502811 Ry
     energy             new  =  -29581.4845248064 Ry

     CASE: energy            _new < energy            _old

     new trust radius        =       0.2940529473 bohr
     new conv_thr            =       0.0000008759 Ry


ATOMIC_POSITIONS (angstrom)
Zn               2.8537902763        0.3068377980       -0.9996731945
Zn               3.7926385959        2.7039546707       -1.0177815097
Zn               4.7833188845        5.1554367228       -1.0040088009
Zn               5.6962434855        7.5765929061       -1.0176224790
Zn               6.4135685891        0.3056334769       -1.0379123537
Zn               7.3707140135        2.7259588264       -1.0321876986
Zn               8.3382367329        5.1615641522       -1.0237045519
Zn               9.2813113031        7.5676074535       -1.0433911942
Zn               9.9569828275        0.2929818777       -1.0534508359
Zn              10.9440340148        2.7115332877       -1.0238174587
Zn              11.8726535689        5.1486235679       -1.0519705492
Zn              12.8313793221        7.6102097699       -1.0527486109
Zn              13.6772283796        0.2597666368       -1.1269290207
Zn              14.6075320204        2.6774926645       -1.1153869329
Zn              15.4613665793        5.1304750176       -1.0046617313
Zn              16.4451199491        7.6090060129       -1.0120974071
Zn               1.4339903652        0.8457225660        4.3371864771
Zn               2.3819241540        3.2793471698        4.3420036155
Zn               3.3545619486        5.7079842876        4.3539623723
Zn               4.3011737917        8.1337652577        4.3415953729
Zn               5.0117725132        0.8391678565        4.3502357695
Zn               5.8639172375        3.2557531671        4.2779853914
Zn               6.8966585599        5.7646662162        4.3045593107
Zn               7.8837182361        8.1329620618        4.3524270627
Zn               8.6382186379        0.6999111351        4.3780651138
Zn              10.0821517480        3.8370571041        3.4011538312
Zn              10.6102444451        5.9794794051        4.3581949111
Zn              11.4525614131        8.1599813569        4.3692427295
Zn              12.1906665838        0.7777910009        4.4084137945
Zn              13.1533186472        3.2876623655        4.3722614679
Zn              14.0680754934        5.6872642145        4.3403364420
Zn              15.0397513708        8.1422463437        4.3394099912
Zn               3.1229799985        0.1761522388        2.6824332425
Zn               4.0150189489        2.5997328822        2.6645165397
Zn               5.0103304737        5.0646719965        2.6698405569
Zn               5.9631350754        7.5002198393        2.6821627268
Zn               6.6801728369        0.2079110673        2.6813046308
Zn               7.4841491672        2.6500578816        2.5221426184
Zn               8.4180342699        5.2245749532        2.4963465705
Zn               9.5300000875        7.5158181097        2.6683487072
Zn              10.2585664493        0.2047385451        2.6493740632
Zn              11.6276571862        2.2464399747        2.4908175068
Zn              12.1706969475        4.9805669005        2.6905799210
Zn              13.1129720343        7.4841163518        2.6921510840
Zn              13.8200733961        0.1805919846        2.6840819175
Zn              14.7841058167        2.6363572956        2.6956481635
Zn              15.7435209014        5.0474125571        2.6884691642
Zn              16.6991747615        7.4853009687        2.6973182604
Zn               1.1820573521        0.9469336922        0.6726296493
Zn               2.1177463316        3.3770549279        0.6311191468
Zn               3.0938570468        5.8145379894        0.6433726679
Zn               4.0360785984        8.2495342077        0.6335681996
Zn               4.7648108070        0.9401567657        0.6400041500
Zn               5.6671811716        3.3835614221        0.5893958092
Zn               6.6554365301        5.8238358376        0.6079023264
Zn               7.6100249009        8.2308653676        0.6440620508
Zn               8.3462654563        0.9204995271        0.6355873265
Zn               9.2992430577        3.3761883121        0.6285802462
Zn              10.2510404140        5.8385625067        0.5974312119
Zn              11.2044847567        8.2636457176        0.6561577562
Zn              11.8806602504        0.6844273798        0.4575544821
Zn              12.9733962114        3.5342169187        0.5080765248
Zn              13.8219141041        5.8352057201        0.6782397170
Zn              14.7348978247        8.1831787610        0.6490450647
O                8.4812910831        3.3819108998        4.9189947153
H                9.7084025949        2.1936253836        5.1482111181
H                8.4870414696        3.0078047660        5.8912818399



     Writing config-only to output data dir /home/ys/Research/PSID_server_room/qe/zinc_surface_water.relax/Zn_101_water/pwscf.save/ :
     XML data file
     NEW-OLD atomic charge density approx. for the potential

     negative rho (up, down):  3.815E-03 0.000E+00

     total cpu time spent up to now is    56149.6 secs

     Self-consistent Calculation

     iteration #  1     ecut=    50.00 Ry     beta= 0.70
     Davidson diagonalization with overlap
     ethr =  1.00E-06,  avg # of iterations = 12.0

     negative rho (up, down):  1.514E-03 0.000E+00

     total cpu time spent up to now is    57392.7 secs

     total energy              =  -29581.59175110 Ry
     estimated scf accuracy    <       0.07136329 Ry

     iteration #  2     ecut=    50.00 Ry     beta= 0.70
     Davidson diagonalization with overlap
     ethr =  5.54E-06,  avg # of iterations = 13.0

     negative rho (up, down):  1.770E-03 0.000E+00

     total cpu time spent up to now is    57935.6 secs

     total energy              =  -29581.47929333 Ry
     estimated scf accuracy    <       1.59091541 Ry

     iteration #  3     ecut=    50.00 Ry     beta= 0.70
     Davidson diagonalization with overlap
     ethr =  5.54E-06,  avg # of iterations = 12.0

     negative rho (up, down):  1.938E-03 0.000E+00

     total cpu time spent up to now is    58462.7 secs

     total energy              =  -29581.58902149 Ry
     estimated scf accuracy    <       0.56331408 Ry

     iteration #  4     ecut=    50.00 Ry     beta= 0.70
     Davidson diagonalization with overlap
     ethr =  5.54E-06,  avg # of iterations =  8.0

     negative rho (up, down):  1.963E-03 0.000E+00

     total cpu time spent up to now is    58873.4 secs

     total energy              =  -29581.62209471 Ry
     estimated scf accuracy    <       0.10130520 Ry

     iteration #  5     ecut=    50.00 Ry     beta= 0.70
     Davidson diagonalization with overlap
     ethr =  5.54E-06,  avg # of iterations =  3.0

     negative rho (up, down):  1.953E-03 0.000E+00

     total cpu time spent up to now is    59250.4 secs

     total energy              =  -29581.62398636 Ry
     estimated scf accuracy    <       0.11778424 Ry

     iteration #  6     ecut=    50.00 Ry     beta= 0.70
     Davidson diagonalization with overlap
     ethr =  5.54E-06,  avg # of iterations =  2.0

     negative rho (up, down):  1.940E-03 0.000E+00

     total cpu time spent up to now is    59618.2 secs

     total energy              =  -29581.63154447 Ry
     estimated scf accuracy    <       0.00676142 Ry

     iteration #  7     ecut=    50.00 Ry     beta= 0.70
     Davidson diagonalization with overlap
     ethr =  5.25E-07,  avg # of iterations =  2.0

     negative rho (up, down):  1.939E-03 0.000E+00

     total cpu time spent up to now is    59982.3 secs

     total energy              =  -29581.63206427 Ry
     estimated scf accuracy    <       0.00441045 Ry

     iteration #  8     ecut=    50.00 Ry     beta= 0.70
     Davidson diagonalization with overlap
     ethr =  3.42E-07,  avg # of iterations =  2.0

     negative rho (up, down):  1.940E-03 0.000E+00

     total cpu time spent up to now is    60341.8 secs

     total energy              =  -29581.63238479 Ry
     estimated scf accuracy    <       0.00302393 Ry

     iteration #  9     ecut=    50.00 Ry     beta= 0.70
     Davidson diagonalization with overlap
     ethr =  2.35E-07,  avg # of iterations =  2.0

     negative rho (up, down):  1.940E-03 0.000E+00
