# vtk DataFile Version 1.0
Cube
ASCII

DATASET POLYDATA
POINTS 312 float
0.263599 6.968249 5.436296
1.403578 6.252767 5.357558
15.095306 6.334928 7.613553
15.381156 7.786432 7.094914
14.758105 6.718344 6.131238
8.821999 15.526649 13.994696
9.961978 14.811167 13.915958
6.536906 14.893328 16.171953
6.822756 16.344832 15.653314
6.199705 15.276744 14.689638
16.853201 10.148551 5.436296
15.713222 10.864033 5.357558
2.021494 10.781872 7.613553
1.735644 9.330368 7.094914
2.358695 10.398456 6.131238
8.294801 1.590151 13.994696
7.154822 2.305633 13.915958
10.579894 2.223472 16.171953
10.294044 0.771968 15.653314
10.917095 1.840056 14.689638
16.853201 6.968249 11.680504
15.713222 6.252767 11.759242
2.021494 6.334928 9.503247
1.735644 7.786432 10.021886
2.358695 6.718344 10.985562
8.294801 15.526649 3.122104
7.154822 14.811167 3.200842
10.579894 14.893328 0.944847
10.294044 16.344832 1.463486
10.917095 15.276744 2.427162
0.263599 10.148551 11.680504
1.403578 10.864033 11.759242
15.095306 10.781872 9.503247
15.381156 9.330368 10.021886
14.758105 10.398456 10.985562
8.821999 1.590151 3.122104
9.961978 2.305633 3.200842
6.536906 2.223472 0.944847
6.822756 0.771968 1.463486
6.199705 1.840056 2.427162
5.436296 0.263599 6.968249
5.357558 1.403578 6.252767
7.613553 15.095306 6.334928
7.094914 15.381156 7.786432
6.131238 14.758105 6.718344
13.994696 8.821999 15.526649
13.915958 9.961978 14.811167
16.171953 6.536906 14.893328
15.653314 6.822756 16.344832
14.689638 6.199705 15.276744
5.436296 16.853201 10.148551
5.357558 15.713222 10.864033
7.613553 2.021494 10.781872
7.094914 1.735644 9.330368
6.131238 2.358695 10.398456
13.994696 8.294801 1.590151
13.915958 7.154822 2.305633
16.171953 10.579894 2.223472
15.653314 10.294044 0.771968
14.689638 10.917095 1.840056
11.680504 16.853201 6.968249
11.759242 15.713222 6.252767
9.503247 2.021494 6.334928
10.021886 1.735644 7.786432
10.985562 2.358695 6.718344
3.122104 8.294801 15.526649
3.200842 7.154822 14.811167
0.944847 10.579894 14.893328
1.463486 10.294044 16.344832
2.427162 10.917095 15.276744
11.680504 0.263599 10.148551
11.759242 1.403578 10.864033
9.503247 15.095306 10.781872
10.021886 15.381156 9.330368
10.985562 14.758105 10.398456
3.122104 8.821999 1.590151
3.200842 9.961978 2.305633
0.944847 6.536906 2.223472
1.463486 6.822756 0.771968
2.427162 6.199705 1.840056
6.968249 5.436296 0.263599
6.252767 5.357558 1.403578
6.334928 7.613553 15.095306
7.786432 7.094914 15.381156
6.718344 6.131238 14.758105
15.526649 13.994696 8.821999
14.811167 13.915958 9.961978
14.893328 16.171953 6.536906
16.344832 15.653314 6.822756
15.276744 14.689638 6.199705
10.148551 5.436296 16.853201
10.864033 5.357558 15.713222
10.781872 7.613553 2.021494
9.330368 7.094914 1.735644
10.398456 6.131238 2.358695
1.590151 13.994696 8.294801
2.305633 13.915958 7.154822
2.223472 16.171953 10.579894
0.771968 15.653314 10.294044
1.840056 14.689638 10.917095
6.968249 11.680504 16.853201
6.252767 11.759242 15.713222
6.334928 9.503247 2.021494
7.786432 10.021886 1.735644
6.718344 10.985562 2.358695
15.526649 3.122104 8.294801
14.811167 3.200842 7.154822
14.893328 0.944847 10.579894
16.344832 1.463486 10.294044
15.276744 2.427162 10.917095
10.148551 11.680504 0.263599
10.864033 11.759242 1.403578
10.781872 9.503247 15.095306
9.330368 10.021886 15.381156
10.398456 10.985562 14.758105
1.590151 3.122104 8.821999
2.305633 3.200842 9.961978
2.223472 0.944847 6.536906
0.771968 1.463486 6.822756
1.840056 2.427162 6.199705
6.968249 0.263599 5.436296
6.252767 1.403578 5.357558
6.334928 15.095306 7.613553
7.786432 15.381156 7.094914
6.718344 14.758105 6.131238
15.526649 8.821999 13.994696
14.811167 9.961978 13.915958
14.893328 6.536906 16.171953
16.344832 6.822756 15.653314
15.276744 6.199705 14.689638
10.148551 16.853201 5.436296
10.864033 15.713222 5.357558
10.781872 2.021494 7.613553
9.330368 1.735644 7.094914
10.398456 2.358695 6.131238
1.590151 8.294801 13.994696
2.305633 7.154822 13.915958
2.223472 10.579894 16.171953
0.771968 10.294044 15.653314
1.840056 10.917095 14.689638
6.968249 16.853201 11.680504
6.252767 15.713222 11.759242
6.334928 2.021494 9.503247
7.786432 1.735644 10.021886
6.718344 2.358695 10.985562
15.526649 8.294801 3.122104
14.811167 7.154822 3.200842
14.893328 10.579894 0.944847
16.344832 10.294044 1.463486
15.276744 10.917095 2.427162
10.148551 0.263599 11.680504
10.864033 1.403578 11.759242
10.781872 15.095306 9.503247
9.330368 15.381156 10.021886
10.398456 14.758105 10.985562
1.590151 8.821999 3.122104
2.305633 9.961978 3.200842
2.223472 6.536906 0.944847
0.771968 6.822756 1.463486
1.840056 6.199705 2.427162
0.263599 5.436296 6.968249
1.403578 5.357558 6.252767
15.095306 7.613553 6.334928
15.381156 7.094914 7.786432
14.758105 6.131238 6.718344
8.821999 13.994696 15.526649
9.961978 13.915958 14.811167
6.536906 16.171953 14.893328
6.822756 15.653314 16.344832
6.199705 14.689638 15.276744
16.853201 5.436296 10.148551
15.713222 5.357558 10.864033
2.021494 7.613553 10.781872
1.735644 7.094914 9.330368
2.358695 6.131238 10.398456
8.294801 13.994696 1.590151
7.154822 13.915958 2.305633
10.579894 16.171953 2.223472
10.294044 15.653314 0.771968
10.917095 14.689638 1.840056
16.853201 11.680504 6.968249
15.713222 11.759242 6.252767
2.021494 9.503247 6.334928
1.735644 10.021886 7.786432
2.358695 10.985562 6.718344
8.294801 3.122104 15.526649
7.154822 3.200842 14.811167
10.579894 0.944847 14.893328
10.294044 1.463486 16.344832
10.917095 2.427162 15.276744
0.263599 11.680504 10.148551
1.403578 11.759242 10.864033
15.095306 9.503247 10.781872
15.381156 10.021886 9.330368
14.758105 10.985562 10.398456
8.821999 3.122104 1.590151
9.961978 3.200842 2.305633
6.536906 0.944847 2.223472
6.822756 1.463486 0.771968
6.199705 2.427162 1.840056
5.436296 6.968249 0.263599
5.357558 6.252767 1.403578
7.613553 6.334928 15.095306
7.094914 7.786432 15.381156
6.131238 6.718344 14.758105
13.994696 15.526649 8.821999
13.915958 14.811167 9.961978
16.171953 14.893328 6.536906
15.653314 16.344832 6.822756
14.689638 15.276744 6.199705
5.436296 10.148551 16.853201
5.357558 10.864033 15.713222
7.613553 10.781872 2.021494
7.094914 9.330368 1.735644
6.131238 10.398456 2.358695
13.994696 1.590151 8.294801
13.915958 2.305633 7.154822
16.171953 2.223472 10.579894
15.653314 0.771968 10.294044
14.689638 1.840056 10.917095
11.680504 6.968249 16.853201
11.759242 6.252767 15.713222
9.503247 6.334928 2.021494
10.021886 7.786432 1.735644
10.985562 6.718344 2.358695
3.122104 15.526649 8.294801
3.200842 14.811167 7.154822
0.944847 14.893328 10.579894
1.463486 16.344832 10.294044
2.427162 15.276744 10.917095
11.680504 10.148551 0.263599
11.759242 10.864033 1.403578
9.503247 10.781872 15.095306
10.021886 9.330368 15.381156
10.985562 10.398456 14.758105
3.122104 1.590151 8.821999
3.200842 2.305633 9.961978
0.944847 2.223472 6.536906
1.463486 0.771968 6.822756
2.427162 1.840056 6.199705
0.000000 8.558400 4.279200
17.116800 8.558400 4.279200
0.000000 8.558400 12.837600
17.116800 8.558400 12.837600
4.279200 0.000000 8.558400
4.279200 17.116800 8.558400
12.837600 0.000000 8.558400
12.837600 17.116800 8.558400
8.558400 4.279200 0.000000
8.558400 4.279200 17.116800
8.558400 12.837600 0.000000
8.558400 12.837600 17.116800
8.558400 0.000000 4.279200
8.558400 17.116800 4.279200
8.558400 0.000000 12.837600
8.558400 17.116800 12.837600
0.000000 4.279200 8.558400
17.116800 4.279200 8.558400
0.000000 12.837600 8.558400
17.116800 12.837600 8.558400
4.279200 8.558400 0.000000
4.279200 8.558400 17.116800
12.837600 8.558400 0.000000
12.837600 8.558400 17.116800
16.748789 6.434205 6.434205
15.372598 6.856990 6.856990
8.190389 14.992605 14.992605
6.814198 15.415390 15.415390
0.368011 10.682595 6.434205
1.744202 10.259810 6.856990
8.926411 2.124195 14.992605
10.302602 1.701410 15.415390
0.368011 6.434205 10.682595
1.744202 6.856990 10.259810
8.926411 14.992605 2.124195
10.302602 15.415390 1.701410
16.748789 10.682595 10.682595
15.372598 10.259810 10.259810
8.190389 2.124195 2.124195
6.814198 1.701410 1.701410
6.434205 16.748789 6.434205
6.856990 15.372598 6.856990
14.992605 8.190389 14.992605
15.415390 6.814198 15.415390
6.434205 0.368011 10.682595
6.856990 1.744202 10.259810
14.992605 8.926411 2.124195
15.415390 10.302602 1.701410
10.682595 0.368011 6.434205
10.259810 1.744202 6.856990
2.124195 8.926411 14.992605
1.701410 10.302602 15.415390
10.682595 16.748789 10.682595
10.259810 15.372598 10.259810
2.124195 8.190389 2.124195
1.701410 6.814198 1.701410
6.434205 6.434205 16.748789
6.856990 6.856990 15.372598
14.992605 14.992605 8.190389
15.415390 15.415390 6.814198
10.682595 6.434205 0.368011
10.259810 6.856990 1.744202
2.124195 14.992605 8.926411
1.701410 15.415390 10.302602
6.434205 10.682595 0.368011
6.856990 10.259810 1.744202
14.992605 2.124195 8.926411
15.415390 1.701410 10.302602
10.682595 10.682595 16.748789
10.259810 10.259810 15.372598
2.124195 2.124195 8.190389
1.701410 1.701410 6.814198
POINT_DATA 312
SCALARS my_scalars float
LOOKUP_TABLE default
1.55
1.55
1.09
1.09
1.09
1.55
1.55
1.09
1.09
1.09
1.55
1.55
1.09
1.09
1.09
1.55
1.55
1.09
1.09
1.09
1.55
1.55
1.09
1.09
1.09
1.55
1.55
1.09
1.09
1.09
1.55
1.55
1.09
1.09
1.09
1.55
1.55
1.09
1.09
1.09
1.55
1.55
1.09
1.09
1.09
1.55
1.55
1.09
1.09
1.09
1.55
1.55
1.09
1.09
1.09
1.55
1.55
1.09
1.09
1.09
1.55
1.55
1.09
1.09
1.09
1.55
1.55
1.09
1.09
1.09
1.55
1.55
1.09
1.09
1.09
1.55
1.55
1.09
1.09
1.09
1.55
1.55
1.09
1.09
1.09
1.55
1.55
1.09
1.09
1.09
1.55
1.55
1.09
1.09
1.09
1.55
1.55
1.09
1.09
1.09
1.55
1.55
1.09
1.09
1.09
1.55
1.55
1.09
1.09
1.09
1.55
1.55
1.09
1.09
1.09
1.55
1.55
1.09
1.09
1.09
1.55
1.55
1.09
1.09
1.09
1.55
1.55
1.09
1.09
1.09
1.55
1.55
1.09
1.09
1.09
1.55
1.55
1.09
1.09
1.09
1.55
1.55
1.09
1.09
1.09
1.55
1.55
1.09
1.09
1.09
1.55
1.55
1.09
1.09
1.09
1.55
1.55
1.09
1.09
1.09
1.55
1.55
1.09
1.09
1.09
1.55
1.55
1.09
1.09
1.09
1.55
1.55
1.09
1.09
1.09
1.55
1.55
1.09
1.09
1.09
1.55
1.55
1.09
1.09
1.09
1.55
1.55
1.09
1.09
1.09
1.55
1.55
1.09
1.09
1.09
1.55
1.55
1.09
1.09
1.09
1.55
1.55
1.09
1.09
1.09
1.55
1.55
1.09
1.09
1.09
1.55
1.55
1.09
1.09
1.09
1.55
1.55
1.09
1.09
1.09
1.55
1.55
1.09
1.09
1.09
1.55
1.55
1.09
1.09
1.09
1.55
1.55
1.09
1.09
1.09
1.55
1.55
1.09
1.09
1.09
1.39
1.39
1.39
1.39
1.39
1.39
1.39
1.39
1.39
1.39
1.39
1.39
1.39
1.39
1.39
1.39
1.39
1.39
1.39
1.39
1.39
1.39
1.39
1.39
1.7
1.7
1.7
1.7
1.7
1.7
1.7
1.7
1.7
1.7
1.7
1.7
1.7
1.7
1.7
1.7
1.7
1.7
1.7
1.7
1.7
1.7
1.7
1.7
1.7
1.7
1.7
1.7
1.7
1.7
1.7
1.7
1.7
1.7
1.7
1.7
1.7
1.7
1.7
1.7
1.7
1.7
1.7
1.7
1.7
1.7
1.7
1.7
VECTORS vectors float
0 0 0
0 0 0
0.25 0 0
0.25 0 0
0.25 0 0
0 0 0
0 0 0
0.25 0 0
0.25 0 0
0.25 0 0
0 0 0
0 0 0
0.25 0 0
0.25 0 0
0.25 0 0
0 0 0
0 0 0
0.25 0 0
0.25 0 0
0.25 0 0
0 0 0
0 0 0
0.25 0 0
0.25 0 0
0.25 0 0
0 0 0
0 0 0
0.25 0 0
0.25 0 0
0.25 0 0
0 0 0
0 0 0
0.25 0 0
0.25 0 0
0.25 0 0
0 0 0
0 0 0
0.25 0 0
0.25 0 0
0.25 0 0
0 0 0
0 0 0
0.25 0 0
0.25 0 0
0.25 0 0
0 0 0
0 0 0
0.25 0 0
0.25 0 0
0.25 0 0
0 0 0
0 0 0
0.25 0 0
0.25 0 0
0.25 0 0
0 0 0
0 0 0
0.25 0 0
0.25 0 0
0.25 0 0
0 0 0
0 0 0
0.25 0 0
0.25 0 0
0.25 0 0
0 0 0
0 0 0
0.25 0 0
0.25 0 0
0.25 0 0
0 0 0
0 0 0
0.25 0 0
0.25 0 0
0.25 0 0
0 0 0
0 0 0
0.25 0 0
0.25 0 0
0.25 0 0
0 0 0
0 0 0
0.25 0 0
0.25 0 0
0.25 0 0
0 0 0
0 0 0
0.25 0 0
0.25 0 0
0.25 0 0
0 0 0
0 0 0
0.25 0 0
0.25 0 0
0.25 0 0
0 0 0
0 0 0
0.25 0 0
0.25 0 0
0.25 0 0
0 0 0
0 0 0
0.25 0 0
0.25 0 0
0.25 0 0
0 0 0
0 0 0
0.25 0 0
0.25 0 0
0.25 0 0
0 0 0
0 0 0
0.25 0 0
0.25 0 0
0.25 0 0
0 0 0
0 0 0
0.25 0 0
0.25 0 0
0.25 0 0
0 0 0
0 0 0
0.25 0 0
0.25 0 0
0.25 0 0
0 0 0
0 0 0
0.25 0 0
0.25 0 0
0.25 0 0
0 0 0
0 0 0
0.25 0 0
0.25 0 0
0.25 0 0
0 0 0
0 0 0
0.25 0 0
0.25 0 0
0.25 0 0
0 0 0
0 0 0
0.25 0 0
0.25 0 0
0.25 0 0
0 0 0
0 0 0
0.25 0 0
0.25 0 0
0.25 0 0
0 0 0
0 0 0
0.25 0 0
0.25 0 0
0.25 0 0
0 0 0
0 0 0
0.25 0 0
0.25 0 0
0.25 0 0
0 0 0
0 0 0
0.25 0 0
0.25 0 0
0.25 0 0
0 0 0
0 0 0
0.25 0 0
0.25 0 0
0.25 0 0
0 0 0
0 0 0
0.25 0 0
0.25 0 0
0.25 0 0
0 0 0
0 0 0
0.25 0 0
0.25 0 0
0.25 0 0
0 0 0
0 0 0
0.25 0 0
0.25 0 0
0.25 0 0
0 0 0
0 0 0
0.25 0 0
0.25 0 0
0.25 0 0
0 0 0
0 0 0
0.25 0 0
0.25 0 0
0.25 0 0
0 0 0
0 0 0
0.25 0 0
0.25 0 0
0.25 0 0
0 0 0
0 0 0
0.25 0 0
0.25 0 0
0.25 0 0
0 0 0
0 0 0
0.25 0 0
0.25 0 0
0.25 0 0
0 0 0
0 0 0
0.25 0 0
0.25 0 0
0.25 0 0
0 0 0
0 0 0
0.25 0 0
0.25 0 0
0.25 0 0
0 0 0
0 0 0
0.25 0 0
0.25 0 0
0.25 0 0
0 0 0
0 0 0
0.25 0 0
0.25 0 0
0.25 0 0
0 0 0
0 0 0
0.25 0 0
0.25 0 0
0.25 0 0
0 0 0
0 0 0
0.25 0 0
0.25 0 0
0.25 0 0
0.4375 0 0
0.4375 0 0
0.4375 0 0
0.4375 0 0
0.4375 0 0
0.4375 0 0
0.4375 0 0
0.4375 0 0
0.4375 0 0
0.4375 0 0
0.4375 0 0
0.4375 0 0
0.4375 0 0
0.4375 0 0
0.4375 0 0
0.4375 0 0
0.4375 0 0
0.4375 0 0
0.4375 0 0
0.4375 0 0
0.4375 0 0
0.4375 0 0
0.4375 0 0
0.4375 0 0
0.3125 0 0
0.3125 0 0
0.3125 0 0
0.3125 0 0
0.3125 0 0
0.3125 0 0
0.3125 0 0
0.3125 0 0
0.3125 0 0
0.3125 0 0
0.3125 0 0
0.3125 0 0
0.3125 0 0
0.3125 0 0
0.3125 0 0
0.3125 0 0
0.3125 0 0
0.3125 0 0
0.3125 0 0
0.3125 0 0
0.3125 0 0
0.3125 0 0
0.3125 0 0
0.3125 0 0
0.3125 0 0
0.3125 0 0
0.3125 0 0
0.3125 0 0
0.3125 0 0
0.3125 0 0
0.3125 0 0
0.3125 0 0
0.3125 0 0
0.3125 0 0
0.3125 0 0
0.3125 0 0
0.3125 0 0
0.3125 0 0
0.3125 0 0
0.3125 0 0
0.3125 0 0
0.3125 0 0
0.3125 0 0
0.3125 0 0
0.3125 0 0
0.3125 0 0
0.3125 0 0
0.3125 0 0
