LAMMPS data file via write_data, version 2 Aug 2023, timestep = 200010, units = real

40 atoms
4 atom types

-15 15 xlo xhi
-15 15 ylo yhi
-15 15 zlo zhi

Masses

1 15.9994
2 1.00794
3 15.9994
4 15.9994

Atoms # charge

37 2 0.1372885181773803 4.608969 -3.8286 1.439678 0 0 0
2 3 -0.6561933694620532 -4.093572 -1.399029 1.232661 0 0 0
12 1 -0.1980650376302791 -3.716933 -0.800485 -1.469755 0 0 0
17 1 -0.05649412707102956 -4.63815 0.394721 -1.456949 0 0 0
19 1 -0.2322109249200418 -5.920806 0.372055 -1.088332 0 0 0
24 2 0.115810485654868 -3.266383 -0.903905 -2.471505 0 0 0
25 2 0.1696441035732726 -4.296793 -1.713952 -1.267466 0 0 0
31 2 0.1318417849547552 -4.175928 1.346007 -1.750676 0 0 0
34 2 0.3104897485552166 -4.133634 -1.554311 2.185145 0 0 0
35 2 0.1299795213659781 -6.532081 1.279261 -1.08624 0 0 0
36 2 0.157901052758421 -6.402135 -0.556626 -0.765117 0 0 0
1 3 -0.6587636087542879 0.17169 2.057246 -1.802725 0 0 0
3 1 -0.03030409213890377 1.050346 0.444506 -0.274697 0 0 0
4 1 0.05046801131222846 -0.305395 -0.008963 0.123537 0 0 0
5 1 -0.001171383637720166 -2.604705 -0.656007 -0.45342 0 0 0
6 1 -0.1113740248937966 -1.339462 -0.192201 -0.812935 0 0 0
8 1 -0.1217453482799395 2.187003 -0.132062 0.311259 0 0 0
9 1 0.265075199579972 1.257724 1.472379 -1.224712 0 0 0
10 1 -0.09212164004025082 -0.586309 -0.30619 1.466332 0 0 0
11 1 0.2625747930518869 -2.854163 -0.945741 0.902383 0 0 0
15 1 -0.1526151150891658 -1.842972 -0.770883 1.852322 0 0 0
16 1 -0.1646330553009875 2.556443 1.878716 -1.546186 0 0 0
21 2 0.1709674759323994 -1.148607 0.030136 -1.86322 0 0 0
22 2 0.1857096259928491 2.04281 -0.949452 1.021547 0 0 0
23 2 0.1807053787712341 0.182952 -0.156 2.226689 0 0 0
29 2 0.1471968686917368 -2.046613 -0.992006 2.905191 0 0 0
30 2 0.1260480266115712 2.698269 2.677347 -2.281971 0 0 0
33 2 0.3086657260656265 0.470608 2.763201 -2.390447 0 0 0
7 1 0.03629012408832016 3.494118 0.268234 0.005916 0 0 0
13 1 -0.2293414173754573 4.679642 -0.392949 0.686038 0 0 0
14 1 -0.121481869872682 3.66369 1.284465 -0.938877 0 0 0
18 1 -0.07697059390426648 4.666704 -1.892876 0.565789 0 0 0
20 1 -0.2306914874760291 4.6241 -2.745812 1.592897 0 0 0
26 2 0.1148468501113023 5.607406 0.003244 0.237321 0 0 0
27 2 0.1527430406016999 4.705088 -0.115308 1.754873 0 0 0
28 2 0.1104732163092109 4.669291 1.619038 -1.208331 0 0 0
32 2 0.1167758156553936 4.673208 -2.284922 -0.459296 0 0 0
38 2 0.1776532496028138 4.60538 -2.389875 2.628982 0 0 0
39 4 -0.1961323396467239 1.4689014553811095 -2.235554807088172 3.5170628092476663 0 0 0
40 4 -0.2288391819245228 2.1958477017354547 -1.2902334038876382 3.590809036029169 0 0 0

Velocities

37 0 0 0
2 0 0 0
12 0 0 0
17 0 0 0
19 0 0 0
24 0 0 0
25 0 0 0
31 0 0 0
34 0 0 0
35 0 0 0
36 0 0 0
1 0 0 0
3 0 0 0
4 0 0 0
5 0 0 0
6 0 0 0
8 0 0 0
9 0 0 0
10 0 0 0
11 0 0 0
15 0 0 0
16 0 0 0
21 0 0 0
22 0 0 0
23 0 0 0
29 0 0 0
30 0 0 0
33 0 0 0
7 0 0 0
13 0 0 0
14 0 0 0
18 0 0 0
20 0 0 0
26 0 0 0
27 0 0 0
28 0 0 0
32 0 0 0
38 0 0 0
39 0.0044944566090899495 -0.0042798567538026595 -0.005310256664917348
40 0.0019345876023483817 -0.002744853220183162 -0.0004341694003624695
