--------------------------------------------------------------------------
By default, for Open MPI 4.0 and later, infiniband ports on a device
are not used by default.  The intent is to use UCX for these devices.
You can override this policy by setting the btl_openib_allow_ib MCA parameter
to true.

  Local host:              psid02
  Local adapter:           mlx5_0
  Local port:              1

--------------------------------------------------------------------------
--------------------------------------------------------------------------
WARNING: There was an error initializing an OpenFabrics device.

  Local host:   psid02
  Local device: mlx5_0
--------------------------------------------------------------------------

     Program PWSCF v.7.3.1 starts on 11Feb2025 at 19:55:49 

     This program is part of the open-source Quantum ESPRESSO suite
     for quantum simulation of materials; please cite
         "P. Giannozzi et al., J. Phys.:Condens. Matter 21 395502 (2009);
         "P. Giannozzi et al., J. Phys.:Condens. Matter 29 465901 (2017);
         "P. Giannozzi et al., J. Chem. Phys. 152 154105 (2020);
          URL http://www.quantum-espresso.org", 
     in publications or presentations arising from this work. More details at
     http://www.quantum-espresso.org/quote

     Parallel version (MPI), running on    32 processors

     MPI processes distributed on     1 nodes
     91420 MiB available memory on the printing compute node when the environment starts

     Waiting for input...
     Reading input from standard input
Warning: card &CELL ignored
Warning: card / ignored

     Current dimensions of program PWSCF are:
     Max number of different atomic species (ntypx) = 10
     Max number of k-points (npk) =  40000
     Max angular momentum in pseudopotentials (lmaxx) =  4
     file O.pbe-n-kjpaw_psl.0.1.UPF: wavefunction(s)  2P renormalized

     gamma-point specific algorithms are used

     R & G space division:  proc/nbgrp/npool/nimage =      32
     Subspace diagonalization in iterative solution of the eigenvalue problem:
     one sub-group per band group will be used
     custom distributed-memory algorithm (size of sub-group:  5*  5 procs)


     Parallelization info
     --------------------
     sticks:   dense  smooth     PW     G-vecs:    dense   smooth      PW
     Min         848     338     83               186625    47204    5895
     Max         851     340     86               186636    47228    5906
     Sum       27147   10875   2721              5972159  1511005  188779

     Using Slab Decomposition



     bravais-lattice index     =           14
     lattice parameter (alat)  =      27.6269  a.u.
     unit-cell volume          =   31632.2292 (a.u.)^3
     number of atoms/cell      =           63
     number of atomic types    =            3
     number of electrons       =      1208.00
     number of Kohn-Sham states=          725
     kinetic-energy cutoff     =      50.0000  Ry
     charge density cutoff     =     500.0000  Ry
     scf convergence threshold =      1.0E-06
     mixing beta               =       0.7000
     number of iterations used =            8  plain     mixing
     energy convergence thresh.=      1.0E-04
     force convergence thresh. =      1.0E-03
     Exchange-correlation= PBE
                           (   1   4   3   4   0   0   0)
     nstep                     =          100


     celldm(1)=  27.626851  celldm(2)=   0.894135  celldm(3)=   1.937323
     celldm(4)=  -0.500000  celldm(5)=   0.000000  celldm(6)=   0.000000

     crystal axes: (cart. coord. in units of alat)
               a(1) = (   1.000000   0.000000   0.000000 )  
               a(2) = (   0.000000   0.894135   0.000000 )  
               a(3) = (   0.000000  -0.968662   1.677771 )  

     reciprocal axes: (cart. coord. in units 2 pi/alat)
               b(1) = (  1.000000 -0.000000 -0.000000 )  
               b(2) = ( -0.000000  1.118400  0.645708 )  
               b(3) = (  0.000000  0.000000  0.596029 )  


     PseudoPot. # 1 for Zn read from file:
     /home/ys/qe-7.3.1/pseudo/Standard_solid-state_pseudopotentials_SSSP_1.3.0_PBE_efficiency/Zn_pbe_v1.uspp.F.UPF
     MD5 check sum: df62231357ef9e81f77b2b3087fa5675
     Pseudo is Ultrasoft, Zval = 20.0
     Generated by new atomic code, or converted to UPF format
     Using radial grid of  943 points,  6 beta functions with: 
                l(1) =   0
                l(2) =   0
                l(3) =   1
                l(4) =   1
                l(5) =   2
                l(6) =   2
     Q(r) pseudized with  8 coefficients,  rinner =    1.100   1.100   1.100
                                                       1.100   1.100

     PseudoPot. # 2 for O  read from file:
     /home/ys/qe-7.3.1/pseudo/Standard_solid-state_pseudopotentials_SSSP_1.3.0_PBE_efficiency/O.pbe-n-kjpaw_psl.0.1.UPF
     MD5 check sum: 0234752ac141de4415c5fc33072bef88
     Pseudo is Projector augmented-wave + core cor, Zval =  6.0
     Generated using "atomic" code by A. Dal Corso  v.5.0.99 svn rev. 10869
     Shape of augmentation charge: BESSEL
     Using radial grid of 1095 points,  4 beta functions with: 
                l(1) =   0
                l(2) =   0
                l(3) =   1
                l(4) =   1
     Q(r) pseudized with 0 coefficients 


     PseudoPot. # 3 for H  read from file:
     /home/ys/qe-7.3.1/pseudo/Standard_solid-state_pseudopotentials_SSSP_1.3.0_PBE_efficiency/H.pbe-rrkjus_psl.1.0.0.UPF
     MD5 check sum: f52b6d4d1c606e5624b1dc7b2218f220
     Pseudo is Ultrasoft, Zval =  1.0
     Generated using "atomic" code by A. Dal Corso  v.5.1
     Using radial grid of  929 points,  2 beta functions with: 
                l(1) =   0
                l(2) =   0
     Q(r) pseudized with 0 coefficients 


     atomic species   valence    mass     pseudopotential
     Zn               20.00    65.39000     Zn( 1.00)
     O                 6.00    15.99940     O ( 1.00)
     H                 1.00     1.00794     H ( 1.00)

     No symmetry found



   Cartesian axes

     site n.     atom                  positions (alat units)
         1        Zn     tau(   1) = (   0.0833329   0.0894128   0.0516234  )
         2        Zn     tau(   2) = (   0.0833329   0.2682397   0.0516234  )
         3        Zn     tau(   3) = (   0.0833329   0.4470667   0.0516234  )
         4        Zn     tau(   4) = (   0.0833329   0.6258936   0.0516234  )
         5        Zn     tau(   5) = (   0.0833329   0.8047205   0.0516234  )
         6        Zn     tau(   6) = (   0.4166665   0.0894128   0.0516234  )
         7        Zn     tau(   7) = (   0.4166665   0.2682397   0.0516234  )
         8        Zn     tau(   8) = (   0.4166665   0.4470667   0.0516234  )
         9        Zn     tau(   9) = (   0.4166665   0.6258936   0.0516234  )
        10        Zn     tau(  10) = (   0.4166665   0.8047205   0.0516234  )
        11        Zn     tau(  11) = (   0.7499991   0.0894128   0.0516234  )
        12        Zn     tau(  12) = (   0.7499991   0.2682397   0.0516234  )
        13        Zn     tau(  13) = (   0.7499991   0.4470667   0.0516234  )
        14        Zn     tau(  14) = (   0.7499991   0.6258936   0.0516234  )
        15        Zn     tau(  15) = (   0.7499991   0.8047205   0.0516234  )
        16        Zn     tau(  16) = (   0.0833329  -0.0000005   0.2064919  )
        17        Zn     tau(  17) = (   0.0833329   0.1788264   0.2064919  )
        18        Zn     tau(  18) = (   0.0833329   0.3576533   0.2064919  )
        19        Zn     tau(  19) = (   0.0833329   0.5364802   0.2064919  )
        20        Zn     tau(  20) = (   0.0833329   0.7153071   0.2064919  )
        21        Zn     tau(  21) = (   0.4166665  -0.0000005   0.2064919  )
        22        Zn     tau(  22) = (   0.4166665   0.1788264   0.2064919  )
        23        Zn     tau(  23) = (   0.4166665   0.3576533   0.2064919  )
        24        Zn     tau(  24) = (   0.4166665   0.5364802   0.2064919  )
        25        Zn     tau(  25) = (   0.4166665   0.7153071   0.2064919  )
        26        Zn     tau(  26) = (   0.7499991  -0.0000005   0.2064919  )
        27        Zn     tau(  27) = (   0.7499991   0.1788264   0.2064919  )
        28        Zn     tau(  28) = (   0.7499991   0.3576533   0.2064919  )
        29        Zn     tau(  29) = (   0.7499991   0.5364802   0.2064919  )
        30        Zn     tau(  30) = (   0.7499991   0.7153071   0.2064919  )
        31        Zn     tau(  31) = (   0.2499997   0.0000007   0.1032451  )
        32        Zn     tau(  32) = (   0.2499997   0.1788276   0.1032451  )
        33        Zn     tau(  33) = (   0.2499997   0.3576545   0.1032451  )
        34        Zn     tau(  34) = (   0.2499997   0.5364814   0.1032451  )
        35        Zn     tau(  35) = (   0.2499997   0.7153083   0.1032451  )
        36        Zn     tau(  36) = (   0.5833323   0.0000007   0.1032451  )
        37        Zn     tau(  37) = (   0.5833323   0.1788276   0.1032451  )
        38        Zn     tau(  38) = (   0.5833323   0.3576545   0.1032451  )
        39        Zn     tau(  39) = (   0.5833323   0.5364814   0.1032451  )
        40        Zn     tau(  40) = (   0.5833323   0.7153083   0.1032451  )
        41        Zn     tau(  41) = (   0.9166659   0.0000007   0.1032451  )
        42        Zn     tau(  42) = (   0.9166659   0.1788276   0.1032451  )
        43        Zn     tau(  43) = (   0.9166659   0.3576545   0.1032451  )
        44        Zn     tau(  44) = (   0.9166659   0.5364814   0.1032451  )
        45        Zn     tau(  45) = (   0.9166659   0.7153083   0.1032451  )
        46        Zn     tau(  46) = (   0.2499997  -0.0894127   0.2581137  )
        47        Zn     tau(  47) = (   0.2499997   0.0894142   0.2581137  )
        48        Zn     tau(  48) = (   0.2499997   0.2682411   0.2581137  )
        49        Zn     tau(  49) = (   0.2499997   0.4470680   0.2581137  )
        50        Zn     tau(  50) = (   0.2499997   0.6258949   0.2581137  )
        51        Zn     tau(  51) = (   0.5833323  -0.0894127   0.2581137  )
        52        Zn     tau(  52) = (   0.5833323   0.0894142   0.2581137  )
        53        Zn     tau(  53) = (   0.5833323   0.2682411   0.2581137  )
        54        Zn     tau(  54) = (   0.5833323   0.4470680   0.2581137  )
        55        Zn     tau(  55) = (   0.5833323   0.6258949   0.2581137  )
        56        Zn     tau(  56) = (   0.9166659  -0.0894127   0.2581137  )
        57        Zn     tau(  57) = (   0.9166659   0.0894142   0.2581137  )
        58        Zn     tau(  58) = (   0.9166659   0.2682411   0.2581137  )
        59        Zn     tau(  59) = (   0.9166659   0.4470680   0.2581137  )
        60        Zn     tau(  60) = (   0.9166659   0.6258949   0.2581137  )
        61        O      tau(  61) = (   0.4364274   0.3709270   0.2999841  )
        62        H      tau(  62) = (   0.3823266   0.3428107   0.3261759  )
        63        H      tau(  63) = (   0.4792694   0.3741263   0.3505640  )

     number of k points=     1  Gaussian smearing, width (Ry)=  0.0100
                       cart. coord. in units 2pi/alat
        k(    1) = (   0.0000000   0.0000000   0.0000000), wk =   2.0000000

     Dense  grid:  2986080 G-vectors     FFT dimensions: ( 200, 180, 384)

     Smooth grid:   755503 G-vectors     FFT dimensions: ( 125, 120, 243)

     Estimated max dynamical RAM per process >     680.03 MB

     Estimated total dynamical RAM >      21.25 GB

     Initial potential from superposition of free atoms

     starting charge    1207.9915, renormalised to    1208.0000

     negative rho (up, down):  3.154E-03 0.000E+00
     Starting wfcs are  786 randomized atomic wfcs
[psid02:218255] 31 more processes have sent help message help-mpi-btl-openib.txt / ib port not selected
[psid02:218255] Set MCA parameter "orte_base_help_aggregate" to 0 to see all help / error messages
[psid02:218255] 31 more processes have sent help message help-mpi-btl-openib.txt / error in device init
     Checking if some PAW data can be deallocated... 

     total cpu time spent up to now is       32.8 secs

     Self-consistent Calculation

     iteration #  1     ecut=    50.00 Ry     beta= 0.70
     Davidson diagonalization with overlap
     ethr =  1.00E-02,  avg # of iterations =  9.0

     Threshold (ethr) on eigenvalues was too large:
     Diagonalizing with lowered threshold

     Davidson diagonalization with overlap
     ethr =  1.53E-04,  avg # of iterations = 11.0

     negative rho (up, down):  1.319E-03 0.000E+00

     total cpu time spent up to now is      253.6 secs

     total energy              =  -27734.69876389 Ry
     estimated scf accuracy    <       1.91887847 Ry

     iteration #  2     ecut=    50.00 Ry     beta= 0.70
     Davidson diagonalization with overlap
     ethr =  1.59E-04,  avg # of iterations =  4.0

     negative rho (up, down):  2.323E-03 0.000E+00

     total cpu time spent up to now is      384.1 secs

     total energy              =  -27734.96312594 Ry
     estimated scf accuracy    <       2.85020361 Ry

     iteration #  3     ecut=    50.00 Ry     beta= 0.70
     Davidson diagonalization with overlap
     ethr =  1.59E-04,  avg # of iterations =  5.0

     negative rho (up, down):  2.838E-03 0.000E+00

     total cpu time spent up to now is      504.2 secs

     total energy              =  -27735.17140187 Ry
     estimated scf accuracy    <       5.19102970 Ry

     iteration #  4     ecut=    50.00 Ry     beta= 0.70
     Davidson diagonalization with overlap
     ethr =  1.59E-04,  avg # of iterations =  6.0

     negative rho (up, down):  2.802E-03 0.000E+00

     total cpu time spent up to now is      603.2 secs

     total energy              =  -27735.51493092 Ry
     estimated scf accuracy    <       0.51906261 Ry

     iteration #  5     ecut=    50.00 Ry     beta= 0.70
     Davidson diagonalization with overlap
     ethr =  4.30E-05,  avg # of iterations =  5.0

     negative rho (up, down):  2.851E-03 0.000E+00

     total cpu time spent up to now is      705.2 secs

     total energy              =  -27735.50271901 Ry
     estimated scf accuracy    <       0.82523115 Ry

     iteration #  6     ecut=    50.00 Ry     beta= 0.70
     Davidson diagonalization with overlap
     ethr =  4.30E-05,  avg # of iterations =  3.0

     negative rho (up, down):  2.868E-03 0.000E+00

     total cpu time spent up to now is      803.7 secs

     total energy              =  -27735.56411938 Ry
     estimated scf accuracy    <       0.10374918 Ry

     iteration #  7     ecut=    50.00 Ry     beta= 0.70
     Davidson diagonalization with overlap
     ethr =  8.59E-06,  avg # of iterations =  6.0

     negative rho (up, down):  2.852E-03 0.000E+00

     total cpu time spent up to now is      904.2 secs

     total energy              =  -27735.56494781 Ry
     estimated scf accuracy    <       0.23497821 Ry

     iteration #  8     ecut=    50.00 Ry     beta= 0.70
     Davidson diagonalization with overlap
     ethr =  8.59E-06,  avg # of iterations =  6.0

     negative rho (up, down):  2.834E-03 0.000E+00

     total cpu time spent up to now is     1000.7 secs

     total energy              =  -27735.57653236 Ry
     estimated scf accuracy    <       0.01335346 Ry

     iteration #  9     ecut=    50.00 Ry     beta= 0.70
     Davidson diagonalization with overlap
     c_bands:  5 eigenvalues not converged
     ethr =  1.11E-06,  avg # of iterations = 20.0

     negative rho (up, down):  2.836E-03 0.000E+00

     total cpu time spent up to now is     1103.8 secs

     total energy              =  -27735.57763787 Ry
     estimated scf accuracy    <       0.00128194 Ry

     iteration # 10     ecut=    50.00 Ry     beta= 0.70
     Davidson diagonalization with overlap
     ethr =  1.06E-07,  avg # of iterations = 16.0

     negative rho (up, down):  2.838E-03 0.000E+00

     total cpu time spent up to now is     1203.6 secs

     total energy              =  -27735.57771319 Ry
     estimated scf accuracy    <       0.00036123 Ry

     iteration # 11     ecut=    50.00 Ry     beta= 0.70
     Davidson diagonalization with overlap
     ethr =  2.99E-08,  avg # of iterations =  3.0

     negative rho (up, down):  2.839E-03 0.000E+00

     total cpu time spent up to now is     1299.1 secs

     total energy              =  -27735.57771507 Ry
     estimated scf accuracy    <       0.00081354 Ry

     iteration # 12     ecut=    50.00 Ry     beta= 0.70
     Davidson diagonalization with overlap
     ethr =  2.99E-08,  avg # of iterations =  2.0

     negative rho (up, down):  2.837E-03 0.000E+00

     total cpu time spent up to now is     1394.0 secs

     total energy              =  -27735.57779198 Ry
     estimated scf accuracy    <       0.00006933 Ry

     iteration # 13     ecut=    50.00 Ry     beta= 0.70
     Davidson diagonalization with overlap
     ethr =  5.74E-09,  avg # of iterations =  2.0

     negative rho (up, down):  2.837E-03 0.000E+00

     total cpu time spent up to now is     1489.7 secs

     total energy              =  -27735.57779887 Ry
     estimated scf accuracy    <       0.00000944 Ry

     iteration # 14     ecut=    50.00 Ry     beta= 0.70
     Davidson diagonalization with overlap
     ethr =  7.81E-10,  avg # of iterations =  2.0

     negative rho (up, down):  2.838E-03 0.000E+00

     total cpu time spent up to now is     1587.3 secs

     total energy              =  -27735.57780020 Ry
     estimated scf accuracy    <       0.00001069 Ry

     iteration # 15     ecut=    50.00 Ry     beta= 0.70
     Davidson diagonalization with overlap
     ethr =  7.81E-10,  avg # of iterations =  2.0

     negative rho (up, down):  2.838E-03 0.000E+00

     total cpu time spent up to now is     1681.5 secs

     total energy              =  -27735.57780040 Ry
     estimated scf accuracy    <       0.00000868 Ry

     iteration # 16     ecut=    50.00 Ry     beta= 0.70
     Davidson diagonalization with overlap
     ethr =  7.18E-10,  avg # of iterations =  2.0

     negative rho (up, down):  2.838E-03 0.000E+00

     total cpu time spent up to now is     1775.8 secs

     total energy              =  -27735.57780103 Ry
     estimated scf accuracy    <       0.00000120 Ry

     iteration # 17     ecut=    50.00 Ry     beta= 0.70
     Davidson diagonalization with overlap
     ethr =  9.90E-11,  avg # of iterations =  2.0

     negative rho (up, down):  2.838E-03 0.000E+00

     total cpu time spent up to now is     1870.9 secs

     total energy              =  -27735.57780074 Ry
     estimated scf accuracy    <       0.00000691 Ry

     iteration # 18     ecut=    50.00 Ry     beta= 0.70
     Davidson diagonalization with overlap
     ethr =  9.90E-11,  avg # of iterations =  2.0

     negative rho (up, down):  2.838E-03 0.000E+00

     total cpu time spent up to now is     1965.5 secs

     total energy              =  -27735.57780087 Ry
     estimated scf accuracy    <       0.00000608 Ry

     iteration # 19     ecut=    50.00 Ry     beta= 0.70
     Davidson diagonalization with overlap
     ethr =  9.90E-11,  avg # of iterations =  2.0

     negative rho (up, down):  2.837E-03 0.000E+00

     total cpu time spent up to now is     2060.7 secs

     End of self-consistent calculation

          k = 0.0000 0.0000 0.0000 ( 94390 PWs)   bands (ev):

  -128.2035-127.1443-127.1104-127.0909-127.0650-127.0525-127.0480-127.0336
  -127.0298-127.0288-127.0272-127.0269-127.0260-127.0250-127.0195-127.0183
  -127.0158-127.0133-127.0129-127.0127-127.0107-127.0097-127.0076-127.0059
  -127.0056-127.0043-127.0015-127.0012-127.0010-126.9987-126.9974-126.9970
  -126.9955-126.9925-126.9917-126.9915-126.9912-126.9895-126.9877-126.9871
  -126.9856-126.9847-126.9837-126.9818-126.9817-126.9800-126.9796-126.9783
  -126.9779-126.9770-126.9770-126.9764-126.9747-126.9705-126.9598-126.9592
  -126.9558-126.9544-126.9062-126.8974 -82.6493 -82.3134 -82.2772 -81.3253
   -81.2993 -81.2953 -81.2717 -81.2647 -81.2585 -81.2483 -81.2403 -81.2338
   -81.2285 -81.2209 -81.2195 -81.2146 -81.2040 -81.2039 -81.2029 -81.2027
   -81.2011 -81.1995 -81.1964 -81.1957 -81.1943 -81.1932 -81.1900 -81.1898
   -81.1886 -81.1881 -81.1871 -81.1863 -81.1846 -81.1845 -81.1835 -81.1832
   -81.1812 -81.1809 -81.1793 -81.1783 -81.1775 -81.1769 -81.1758 -81.1755
   -81.1753 -81.1751 -81.1737 -81.1733 -81.1733 -81.1727 -81.1710 -81.1710
   -81.1709 -81.1705 -81.1704 -81.1700 -81.1692 -81.1691 -81.1685 -81.1679
   -81.1675 -81.1674 -81.1671 -81.1663 -81.1653 -81.1642 -81.1639 -81.1635
   -81.1629 -81.1628 -81.1623 -81.1619 -81.1609 -81.1607 -81.1597 -81.1594
   -81.1589 -81.1574 -81.1573 -81.1572 -81.1568 -81.1561 -81.1560 -81.1560
   -81.1556 -81.1554 -81.1551 -81.1547 -81.1546 -81.1544 -81.1538 -81.1538
   -81.1533 -81.1529 -81.1527 -81.1525 -81.1521 -81.1517 -81.1511 -81.1508
   -81.1507 -81.1495 -81.1491 -81.1479 -81.1473 -81.1467 -81.1465 -81.1456
   -81.1455 -81.1443 -81.1441 -81.1439 -81.1438 -81.1430 -81.1424 -81.1421
   -81.1420 -81.1413 -81.1402 -81.1394 -81.1386 -81.1374 -81.1363 -81.1361
   -81.1354 -81.1353 -81.1350 -81.1335 -81.1333 -81.1330 -81.1322 -81.1320
   -81.1318 -81.1315 -81.1312 -81.1303 -81.1294 -81.1293 -81.1290 -81.1283
   -81.1283 -81.1266 -81.1256 -81.1252 -81.1247 -81.1239 -81.1228 -81.1220
   -81.1218 -81.1214 -81.1212 -81.1211 -81.1208 -81.1191 -81.1188 -81.1186
   -81.1175 -81.1160 -81.1153 -81.1150 -81.1145 -81.1133 -81.1122 -81.1115
   -81.1100 -81.1073 -81.1041 -81.1025 -81.1019 -81.1006 -81.0989 -81.0988
   -81.0973 -81.0945 -81.0734 -81.0612 -81.0587 -81.0482 -81.0449 -81.0417
   -26.6142 -14.9451 -13.7984 -11.1874 -10.0413  -9.4984  -9.4355  -9.3199
    -9.2359  -9.2174  -9.2074  -8.9557  -8.8662  -8.8171  -8.8122  -8.7917
    -8.7654  -8.7623  -8.7532  -8.7447  -8.7290  -8.7106  -8.7028  -8.6709
    -8.6498  -8.6062  -8.6002  -8.5951  -8.5901  -8.5889  -8.5880  -8.5807
    -8.5777  -8.5679  -8.5571  -8.5495  -8.5492  -8.5369  -8.5320  -8.5263
    -8.5227  -8.5128  -8.5097  -8.5091  -8.5051  -8.5008  -8.4995  -8.4974
    -8.4929  -8.4836  -8.4813  -8.4758  -8.4723  -8.4642  -8.4611  -8.4523
    -8.4408  -8.4315  -8.4220  -8.4182  -8.4129  -8.4095  -8.4028  -8.4015
    -8.4014  -8.3989  -8.3966  -8.3887  -8.3803  -8.3734  -8.3619  -8.3550
    -8.3526  -8.3503  -8.3436  -8.3414  -8.3384  -8.3232  -8.3180  -8.3167
    -8.3019  -8.2964  -8.2924  -8.2908  -8.2899  -8.2811  -8.2774  -8.2745
    -8.2663  -8.2644  -8.2617  -8.2575  -8.2538  -8.2481  -8.2450  -8.2364
    -8.2328  -8.2273  -8.2265  -8.2196  -8.2154  -8.2031  -8.1825  -8.1766
    -8.1695  -8.1604  -8.1569  -8.1535  -8.1522  -8.1511  -8.1472  -8.1444
    -8.1422  -8.1266  -8.1260  -8.1172  -8.1161  -8.1044  -8.1014  -8.0868
    -8.0783  -8.0721  -8.0684  -8.0652  -8.0503  -8.0468  -8.0431  -8.0375
    -8.0274  -8.0260  -8.0211  -8.0183  -8.0148  -8.0116  -8.0074  -8.0042
    -8.0030  -8.0003  -7.9956  -7.9929  -7.9917  -7.9900  -7.9884  -7.9870
    -7.9858  -7.9831  -7.9819  -7.9803  -7.9769  -7.9737  -7.9729  -7.9696
    -7.9689  -7.9633  -7.9583  -7.9450  -7.9360  -7.9331  -7.9310  -7.9241
    -7.9082  -7.9053  -7.9027  -7.8940  -7.8898  -7.8863  -7.8840  -7.8800
    -7.8710  -7.8684  -7.8661  -7.8649  -7.8645  -7.8623  -7.8544  -7.8529
    -7.8509  -7.8461  -7.8394  -7.8372  -7.8335  -7.8311  -7.8301  -7.8231
    -7.8199  -7.8159  -7.8135  -7.8060  -7.8044  -7.8014  -7.7936  -7.7877
    -7.7851  -7.7766  -7.7730  -7.7670  -7.7590  -7.7485  -7.7464  -7.7401
    -7.7272  -7.7224  -7.7215  -7.7160  -7.7105  -7.7049  -7.7009  -7.6984
    -7.6937  -7.6788  -7.6740  -7.6710  -7.6676  -7.6654  -7.6629  -7.6600
    -7.6585  -7.6563  -7.6558  -7.6531  -7.6525  -7.6508  -7.6494  -7.6483
    -7.6460  -7.6445  -7.6438  -7.6424  -7.6394  -7.6359  -7.6334  -7.6320
    -7.6276  -7.6237  -7.6228  -7.6152  -7.6133  -7.6099  -7.6054  -7.6036
    -7.6003  -7.5982  -7.5955  -7.5912  -7.5883  -7.5854  -7.5845  -7.5838
    -7.5811  -7.5792  -7.5780  -7.5742  -7.5732  -7.5707  -7.5669  -7.5556
    -7.5518  -7.5476  -7.5430  -7.5413  -7.5369  -7.5314  -7.5277  -7.5246
    -7.5243  -7.5136  -7.5096  -7.5092  -7.5062  -7.5056  -7.5034  -7.5027
    -7.4998  -7.4975  -7.4937  -7.4929  -7.4850  -7.4831  -7.4806  -7.4781
    -7.4767  -7.4750  -7.4703  -7.4670  -7.4654  -7.4588  -7.4566  -7.4512
    -7.4418  -7.4392  -7.4380  -7.4352  -7.4330  -7.4300  -7.4291  -7.4276
    -7.4250  -7.4161  -7.4133  -7.4110  -7.4083  -7.4072  -7.4029  -7.4008
    -7.3966  -7.3939  -7.3911  -7.3704  -7.3387  -7.3148  -7.2958  -6.8513
    -6.6742  -6.4556  -6.3636  -5.8394  -5.6910  -5.6494  -5.6044  -5.5884
    -5.5675  -5.5056  -5.1249  -5.1228  -5.1071  -5.0947  -5.0816  -5.0672
    -4.9293  -4.8343  -4.2826  -4.2807  -4.2231  -3.9688  -3.1720  -3.1013
    -3.0716  -3.0519  -3.0289  -3.0162  -2.8601  -2.6366  -2.6137  -2.4814
    -2.3677  -2.3277  -2.3208  -2.3031  -2.1770  -1.8781  -1.8774  -1.7830
    -1.7807  -1.7050  -1.6849  -1.6529  -1.4783  -1.3987  -1.3764  -1.3313
    -1.2619  -1.0940  -1.0648  -0.7560  -0.7499  -0.7377  -0.6767  -0.3153
    -0.2923  -0.2638  -0.2418   0.2791   0.3001   0.3507   0.4327   0.4582
     0.5796   0.6936   0.6979   0.7338   0.9555   1.2556   1.2930   1.2992
     1.3766   1.4011   1.4150   1.4338   1.4712   1.4819   1.5045   1.5617
     1.6792   1.7583   1.7705   1.8076   1.8156   1.8571   2.0980   2.1846
     2.2304   2.2693   2.2956   2.3468   2.6220   2.6290   2.6425   2.7237
     2.8406   2.8906   2.9355   2.9863   3.0028   3.0950   3.1273   3.1530
     3.1636   3.1785   3.3502   3.3754   3.5508   3.6544   3.7387   3.8123
     3.8329   3.9309   3.9710   3.9855   4.0035   4.0373   4.1621   4.1923
     4.2129   4.2552   4.2661   4.2782   4.2892   4.3440   4.3791   4.3952
     4.4223   4.4332   4.4520   4.4606   4.4794   4.5319   4.5699   4.6405
     4.6421   4.6549   4.6739   4.7800   4.8270   4.8545   4.8808   4.8967
     4.9309   4.9381   4.9655   4.9820   5.0598   5.0663   5.0901   5.0966
     5.1177   5.1261   5.1828   5.1934   5.2431   5.2660   5.3127   5.3308
     5.3326   5.3461   5.3924   5.5423   5.5746   5.6010   5.6167   5.6298
     5.6400   5.6564   5.6911   5.6976   5.7183

     the Fermi energy is    -0.7984 ev

!    total energy              =  -27735.57780111 Ry
     estimated scf accuracy    <       0.00000017 Ry
     smearing contrib. (-TS)   =      -0.01741901 Ry
     internal energy E=F+TS    =  -27735.56038210 Ry

     The total energy is F=E-TS. E is the sum of the following terms:
     one-electron contribution = -163227.41315669 Ry
     hartree contribution      =   81439.15403952 Ry
     xc contribution           =   -2537.66859106 Ry
     ewald contribution        =   56599.87520034 Ry
     one-center paw contrib.   =      -9.50787421 Ry

     convergence has been achieved in  19 iterations

     negative rho (up, down):  2.837E-03 0.000E+00

     Forces acting on atoms (cartesian axes, Ry/au):

     atom    1 type  1   force =     0.00012246    0.00072490   -0.00918450
     atom    2 type  1   force =    -0.00089869   -0.00044455   -0.01072138
     atom    3 type  1   force =    -0.00073834    0.00040898   -0.01028511
     atom    4 type  1   force =    -0.00059291   -0.00145932   -0.00942738
     atom    5 type  1   force =     0.00233581    0.00037184   -0.00866064
     atom    6 type  1   force =    -0.00032449    0.00191929   -0.01080834
     atom    7 type  1   force =    -0.00120374    0.00791682   -0.00811843
     atom    8 type  1   force =    -0.00150683   -0.00510222   -0.01067160
     atom    9 type  1   force =    -0.00008138   -0.00286481   -0.01178408
     atom   10 type  1   force =    -0.00062937   -0.00017429   -0.01007620
     atom   11 type  1   force =    -0.00062601   -0.00040521   -0.00956055
     atom   12 type  1   force =    -0.00060346   -0.00102662   -0.01011075
     atom   13 type  1   force =    -0.00100983    0.00049375   -0.01027332
     atom   14 type  1   force =     0.00026450    0.00065949   -0.01020716
     atom   15 type  1   force =    -0.00127066    0.00026085   -0.01089671
     atom   16 type  1   force =     0.00009615    0.00032226    0.03166622
     atom   17 type  1   force =     0.00088135   -0.00001337    0.03214227
     atom   18 type  1   force =    -0.00085331   -0.00023211    0.03138762
     atom   19 type  1   force =     0.00030513   -0.00019456    0.03199489
     atom   20 type  1   force =     0.00000616    0.00002687    0.03136823
     atom   21 type  1   force =     0.00015012   -0.00243957    0.03334421
     atom   22 type  1   force =    -0.00140854   -0.01750511    0.02268804
     atom   23 type  1   force =    -0.19517030   -0.14015129   -1.05761169
     atom   24 type  1   force =    -0.00211343    0.03007144    0.01576308
     atom   25 type  1   force =    -0.00000047    0.00582144    0.03228209
     atom   26 type  1   force =     0.00020985    0.00088118    0.03252338
     atom   27 type  1   force =     0.00035842    0.00019525    0.03056184
     atom   28 type  1   force =     0.00093364    0.00003455    0.03185133
     atom   29 type  1   force =     0.00028243   -0.00031992    0.03093727
     atom   30 type  1   force =    -0.00021283   -0.00070764    0.03173362
     atom   31 type  1   force =    -0.00086726   -0.00062784   -0.03180000
     atom   32 type  1   force =    -0.00213763   -0.00070130   -0.03199633
     atom   33 type  1   force =     0.00218557    0.00063238   -0.03428341
     atom   34 type  1   force =    -0.00105815   -0.00060298   -0.03310760
     atom   35 type  1   force =    -0.00076005    0.00021586   -0.03105443
     atom   36 type  1   force =     0.00000843    0.00028866   -0.03004338
     atom   37 type  1   force =     0.00094056    0.00126745   -0.03208129
     atom   38 type  1   force =     0.00065831   -0.00028497   -0.03139117
     atom   39 type  1   force =     0.00040390   -0.00178320   -0.03196632
     atom   40 type  1   force =     0.00002262    0.00006868   -0.02995603
     atom   41 type  1   force =     0.00056771    0.00055336   -0.03226500
     atom   42 type  1   force =     0.00107688    0.00047498   -0.03401705
     atom   43 type  1   force =    -0.00032479   -0.00160548   -0.03255221
     atom   44 type  1   force =     0.00129556    0.00184816   -0.03455063
     atom   45 type  1   force =     0.00022515   -0.00156544   -0.03180616
     atom   46 type  1   force =     0.00249090    0.00017403    0.01226605
     atom   47 type  1   force =     0.00121401    0.00035068    0.01094219
     atom   48 type  1   force =    -0.01289678   -0.00582019    0.00787969
     atom   49 type  1   force =    -0.02020336    0.00619677    0.00643834
     atom   50 type  1   force =     0.00084343   -0.00128205    0.01162787
     atom   51 type  1   force =    -0.00185074    0.00026393    0.01103419
     atom   52 type  1   force =    -0.00106568   -0.00049703    0.01127680
     atom   53 type  1   force =     0.03420202   -0.01780947    0.00252428
     atom   54 type  1   force =     0.05466028    0.02534467   -0.00381455
     atom   55 type  1   force =    -0.00084597   -0.00066101    0.01105293
     atom   56 type  1   force =    -0.00011691    0.00055193    0.01088815
     atom   57 type  1   force =     0.00013177   -0.00032353    0.00985872
     atom   58 type  1   force =     0.00019174    0.00037410    0.00994604
     atom   59 type  1   force =     0.00019087   -0.00032727    0.00995874
     atom   60 type  1   force =     0.00040020   -0.00051279    0.00916397
     atom   61 type  2   force =     0.16707812    0.13221670    1.03548982
     atom   62 type  3   force =    -0.07347763   -0.02273567    0.07100842
     atom   63 type  3   force =     0.05011548    0.00924956    0.03348312

     Total force =     1.524157     Total SCF correction =     0.002460

     BFGS Geometry Optimization
     Energy error            =      0.0E+00 Ry
     Gradient error          =      1.1E+00 Ry/Bohr

     number of scf cycles    =   1
     number of bfgs steps    =   0

     energy             new  =  -27735.5778011068 Ry

     new trust radius        =       0.5000000000 bohr
     new conv_thr            =       0.0000010000 Ry


ATOMIC_POSITIONS (angstrom)
Zn               1.2182850000        1.3071710000        0.7547080000    0   0   0
Zn               1.2182850000        3.9215310000        0.7547080000    0   0   0
Zn               1.2182850000        6.5358910000        0.7547080000    0   0   0
Zn               1.2182850000        9.1502510000        0.7547080000    0   0   0
Zn               1.2182850000       11.7646110000        0.7547080000    0   0   0
Zn               6.0914560000        1.3071710000        0.7547080000    0   0   0
Zn               6.0914560000        3.9215310000        0.7547080000    0   0   0
Zn               6.0914560000        6.5358910000        0.7547080000    0   0   0
Zn               6.0914560000        9.1502510000        0.7547080000    0   0   0
Zn               6.0914560000       11.7646110000        0.7547080000    0   0   0
Zn              10.9646120000        1.3071710000        0.7547080000    0   0   0
Zn              10.9646120000        3.9215310000        0.7547080000    0   0   0
Zn              10.9646120000        6.5358910000        0.7547080000    0   0   0
Zn              10.9646120000        9.1502510000        0.7547080000    0   0   0
Zn              10.9646120000       11.7646110000        0.7547080000    0   0   0
Zn               1.2182850000       -0.0000080000        3.0188090000    0   0   0
Zn               1.2182850000        2.6143520000        3.0188090000    0   0   0
Zn               1.2180768281        5.2286553758        3.0264662845
Zn               1.2182850000        7.8430720000        3.0188090000    0   0   0
Zn               1.2182850000       10.4574320000        3.0188090000    0   0   0
Zn               6.0914926236       -0.0006031553        3.0269436127
Zn               6.0911123732        2.6100814738        3.0243439468
Zn               6.0438424907        5.1945208620        2.7607953377
Zn               6.0909404094        7.8504081916        3.0226545419
Zn               6.0914558849       10.4588521903        3.0266845003
Zn              10.9646120000       -0.0000080000        3.0188090000    0   0   0
Zn              10.9646994397        2.6143996318        3.0262648303
Zn              10.9648397694        5.2287204295        3.0265794125
Zn              10.9646809001        7.8429939523        3.0263564179
Zn              10.9646120000       10.4574320000        3.0188090000    0   0   0
Zn               3.6548710000        0.0000100000        1.5093920000    0   0   0
Zn               3.6548710000        2.6143700000        1.5093920000    0   0   0
Zn               3.6548710000        5.2287300000        1.5093920000    0   0   0
Zn               3.6548710000        7.8430900000        1.5093920000    0   0   0
Zn               3.6548710000       10.4574500000        1.5093920000    0   0   0
Zn               8.5280260000        0.0000100000        1.5093920000    0   0   0
Zn               8.5280260000        2.6143700000        1.5093920000    0   0   0
Zn               8.5280260000        5.2287300000        1.5093920000    0   0   0
Zn               8.5280260000        7.8430900000        1.5093920000    0   0   0
Zn               8.5280260000       10.4574500000        1.5093920000    0   0   0
Zn              13.4011970000        0.0000100000        1.5093920000    0   0   0
Zn              13.4011970000        2.6143700000        1.5093920000    0   0   0
Zn              13.4011970000        5.2287300000        1.5093920000    0   0   0
Zn              13.4011970000        7.8430900000        1.5093920000    0   0   0
Zn              13.4011970000       10.4574500000        1.5093920000    0   0   0
Zn               3.6548710000       -1.3071690000        3.7734930000    0   0   0
Zn               3.6551671686        1.3072765522        3.7761624440
Zn               3.6517247182        3.9201311127        3.7754153199
Zn               3.6499422132        6.5374227564        3.7750636891
Zn               3.6550767623        9.1499582325        3.7763297211
Zn               8.5280260000       -1.3071690000        3.7734930000    0   0   0
Zn               8.5277660184        1.3070697453        3.7762440733
Zn               8.5363698830        3.9172062223        3.7741088192
Zn               8.5413608566        6.5420940544        3.7725624080
Zn               8.5278196176        9.1501097404        3.7761894586
Zn              13.4011970000       -1.3071690000        3.7734930000    0   0   0
Zn              13.4011970000        1.3071910000        3.7734930000    0   0   0
Zn              13.4011970000        3.9215510000        3.7734930000    0   0   0
Zn              13.4011970000        6.5359110000        3.7734930000    0   0   0
Zn              13.4011970000        9.1502710000        3.7734930000    0   0   0
O                6.4211111741        5.4550224259        4.6382348389
H                5.5714974874        5.0061744348        4.7858511269
H                7.0189051106        5.4717965123        5.1332385001



     Writing config-only to output data dir /home/ys/Research/PSID_server_room/qe/zinc_surface_water.relax/Zn_100_water/pwscf.save/ :
     XML data file
     NEW-OLD atomic charge density approx. for the potential

     negative rho (up, down):  2.942E-03 0.000E+00

     total cpu time spent up to now is     2103.3 secs

     Self-consistent Calculation

     iteration #  1     ecut=    50.00 Ry     beta= 0.70
     Davidson diagonalization with overlap
     ethr =  1.00E-06,  avg # of iterations = 14.0

     negative rho (up, down):  2.559E-03 0.000E+00

     total cpu time spent up to now is     2334.3 secs

     total energy              =  -27735.74017835 Ry
     estimated scf accuracy    <       0.17424681 Ry

     iteration #  2     ecut=    50.00 Ry     beta= 0.70
     Davidson diagonalization with overlap
     ethr =  1.44E-05,  avg # of iterations = 16.0

     negative rho (up, down):  2.633E-03 0.000E+00

     total cpu time spent up to now is     2459.0 secs

     total energy              =  -27735.50236195 Ry
     estimated scf accuracy    <       3.23915418 Ry

     iteration #  3     ecut=    50.00 Ry     beta= 0.70
     Davidson diagonalization with overlap
     ethr =  1.44E-05,  avg # of iterations = 17.0

     negative rho (up, down):  2.629E-03 0.000E+00

     total cpu time spent up to now is     2588.3 secs

     total energy              =  -27735.72993948 Ry
     estimated scf accuracy    <       1.75831216 Ry

     iteration #  4     ecut=    50.00 Ry     beta= 0.70
     Davidson diagonalization with overlap
     ethr =  1.44E-05,  avg # of iterations = 10.0

     negative rho (up, down):  2.619E-03 0.000E+00

     total cpu time spent up to now is     2695.8 secs

     total energy              =  -27735.82371767 Ry
     estimated scf accuracy    <       0.20987482 Ry

     iteration #  5     ecut=    50.00 Ry     beta= 0.70
     Davidson diagonalization with overlap
     ethr =  1.44E-05,  avg # of iterations =  3.0

     negative rho (up, down):  2.606E-03 0.000E+00

     total cpu time spent up to now is     2795.5 secs

     total energy              =  -27735.84210541 Ry
     estimated scf accuracy    <       0.04678951 Ry

     iteration #  6     ecut=    50.00 Ry     beta= 0.70
     Davidson diagonalization with overlap
     ethr =  3.87E-06,  avg # of iterations =  3.0

     negative rho (up, down):  2.604E-03 0.000E+00

     total cpu time spent up to now is     2895.7 secs

     total energy              =  -27735.84243365 Ry
     estimated scf accuracy    <       0.05232646 Ry

     iteration #  7     ecut=    50.00 Ry     beta= 0.70
     Davidson diagonalization with overlap
     ethr =  3.87E-06,  avg # of iterations =  6.0

     negative rho (up, down):  2.600E-03 0.000E+00

     total cpu time spent up to now is     2993.8 secs

     total energy              =  -27735.84380486 Ry
     estimated scf accuracy    <       0.08137823 Ry

     iteration #  8     ecut=    50.00 Ry     beta= 0.70
     Davidson diagonalization with overlap
     ethr =  3.87E-06,  avg # of iterations =  6.0

     negative rho (up, down):  2.599E-03 0.000E+00

     total cpu time spent up to now is     3089.4 secs

     total energy              =  -27735.84791945 Ry
     estimated scf accuracy    <       0.00230780 Ry

     iteration #  9     ecut=    50.00 Ry     beta= 0.70
     Davidson diagonalization with overlap
     ethr =  1.91E-07,  avg # of iterations =  2.0

     negative rho (up, down):  2.598E-03 0.000E+00

     total cpu time spent up to now is     3185.4 secs

     total energy              =  -27735.84808038 Ry
     estimated scf accuracy    <       0.00174714 Ry

     iteration # 10     ecut=    50.00 Ry     beta= 0.70
     Davidson diagonalization with overlap
     ethr =  1.45E-07,  avg # of iterations =  2.0

     negative rho (up, down):  2.598E-03 0.000E+00

     total cpu time spent up to now is     3280.1 secs

     total energy              =  -27735.84824845 Ry
     estimated scf accuracy    <       0.00063047 Ry

     iteration # 11     ecut=    50.00 Ry     beta= 0.70
     Davidson diagonalization with overlap
     ethr =  5.22E-08,  avg # of iterations =  2.0

     negative rho (up, down):  2.598E-03 0.000E+00

     total cpu time spent up to now is     3375.3 secs

     total energy              =  -27735.84831000 Ry
     estimated scf accuracy    <       0.00005233 Ry

     iteration # 12     ecut=    50.00 Ry     beta= 0.70
     Davidson diagonalization with overlap
     ethr =  4.33E-09,  avg # of iterations =  4.0

     negative rho (up, down):  2.598E-03 0.000E+00

     total cpu time spent up to now is     3482.6 secs

     total energy              =  -27735.84830670 Ry
     estimated scf accuracy    <       0.00009479 Ry

     iteration # 13     ecut=    50.00 Ry     beta= 0.70
     Davidson diagonalization with overlap
     ethr =  4.33E-09,  avg # of iterations =  3.0

     negative rho (up, down):  2.598E-03 0.000E+00

     total cpu time spent up to now is     3579.0 secs

     total energy              =  -27735.84831285 Ry
     estimated scf accuracy    <       0.00022700 Ry

     iteration # 14     ecut=    50.00 Ry     beta= 0.70
     Davidson diagonalization with overlap
     ethr =  4.33E-09,  avg # of iterations =  2.0

     negative rho (up, down):  2.598E-03 0.000E+00

     total cpu time spent up to now is     3673.2 secs

     total energy              =  -27735.84832458 Ry
     estimated scf accuracy    <       0.00000475 Ry

     iteration # 15     ecut=    50.00 Ry     beta= 0.70
     Davidson diagonalization with overlap
     ethr =  3.94E-10,  avg # of iterations =  2.0

     negative rho (up, down):  2.598E-03 0.000E+00

     total cpu time spent up to now is     3768.8 secs

     total energy              =  -27735.84832501 Ry
     estimated scf accuracy    <       0.00000128 Ry

     iteration # 16     ecut=    50.00 Ry     beta= 0.70
     Davidson diagonalization with overlap
     ethr =  1.06E-10,  avg # of iterations =  2.0

     negative rho (up, down):  2.598E-03 0.000E+00

     total cpu time spent up to now is     3863.4 secs

     End of self-consistent calculation

          k = 0.0000 0.0000 0.0000 ( 94390 PWs)   bands (ev):

  -127.3680-127.1092-127.0728-127.0696-127.0621-127.0598-127.0533-127.0518
  -127.0506-127.0505-127.0504-127.0495-127.0490-127.0480-127.0463-127.0424
  -127.0411-127.0405-127.0391-127.0386-127.0357-127.0344-127.0330-127.0307
  -127.0289-127.0258-127.0247-127.0245-127.0239-127.0225-127.0223-127.0217
  -127.0204-127.0204-127.0203-127.0187-127.0160-127.0147-127.0126-127.0117
  -127.0098-127.0093-127.0051-127.0045-127.0035-127.0029-127.0026-127.0003
  -126.9987-126.9981-126.9967-126.9953-126.9952-126.9944-126.9938-126.9879
  -126.9877-126.9862-126.9861-126.9707 -81.5577 -81.5283 -81.5123 -81.2907
   -81.2621 -81.2471 -81.2413 -81.2410 -81.2376 -81.2295 -81.2278 -81.2274
   -81.2257 -81.2230 -81.2222 -81.2190 -81.2186 -81.2180 -81.2168 -81.2164
   -81.2158 -81.2146 -81.2134 -81.2112 -81.2109 -81.2105 -81.2104 -81.2091
   -81.2077 -81.2072 -81.2065 -81.2056 -81.2053 -81.2047 -81.2043 -81.2026
   -81.2024 -81.2018 -81.2013 -81.2012 -81.1998 -81.1992 -81.1989 -81.1987
   -81.1981 -81.1976 -81.1974 -81.1966 -81.1959 -81.1958 -81.1955 -81.1949
   -81.1945 -81.1943 -81.1937 -81.1933 -81.1932 -81.1926 -81.1921 -81.1917
   -81.1913 -81.1910 -81.1892 -81.1891 -81.1889 -81.1888 -81.1881 -81.1873
   -81.1865 -81.1863 -81.1860 -81.1860 -81.1857 -81.1854 -81.1853 -81.1851
   -81.1847 -81.1843 -81.1841 -81.1840 -81.1827 -81.1826 -81.1820 -81.1805
   -81.1801 -81.1796 -81.1786 -81.1781 -81.1779 -81.1777 -81.1776 -81.1773
   -81.1764 -81.1762 -81.1753 -81.1751 -81.1749 -81.1748 -81.1742 -81.1727
   -81.1726 -81.1716 -81.1704 -81.1703 -81.1699 -81.1696 -81.1695 -81.1690
   -81.1687 -81.1684 -81.1680 -81.1679 -81.1677 -81.1671 -81.1670 -81.1668
   -81.1663 -81.1648 -81.1646 -81.1642 -81.1635 -81.1634 -81.1616 -81.1615
   -81.1613 -81.1599 -81.1595 -81.1593 -81.1589 -81.1586 -81.1579 -81.1576
   -81.1573 -81.1555 -81.1552 -81.1548 -81.1548 -81.1547 -81.1542 -81.1541
   -81.1531 -81.1530 -81.1524 -81.1520 -81.1515 -81.1514 -81.1500 -81.1468
   -81.1462 -81.1455 -81.1442 -81.1440 -81.1434 -81.1430 -81.1424 -81.1423
   -81.1422 -81.1413 -81.1407 -81.1396 -81.1388 -81.1386 -81.1374 -81.1361
   -81.1345 -81.1335 -81.1332 -81.1321 -81.1315 -81.1314 -81.1311 -81.1307
   -81.1299 -81.1296 -81.1290 -81.1289 -81.1283 -81.1255 -81.1148 -81.1093
   -25.4163 -14.3856 -10.2107  -9.8986  -9.4546  -9.4116  -9.2417  -9.2114
    -8.9710  -8.8852  -8.8705  -8.8498  -8.8355  -8.8323  -8.8240  -8.7977
    -8.7839  -8.7762  -8.7606  -8.7377  -8.7301  -8.7218  -8.6969  -8.6752
    -8.6526  -8.6228  -8.6220  -8.6161  -8.6134  -8.6123  -8.6061  -8.6006
    -8.5851  -8.5776  -8.5738  -8.5699  -8.5655  -8.5557  -8.5510  -8.5439
    -8.5401  -8.5332  -8.5297  -8.5257  -8.5245  -8.5213  -8.5206  -8.5134
    -8.5062  -8.5030  -8.4979  -8.4952  -8.4846  -8.4734  -8.4597  -8.4515
    -8.4496  -8.4472  -8.4443  -8.4342  -8.4302  -8.4267  -8.4229  -8.4214
    -8.4206  -8.4170  -8.4120  -8.4079  -8.3970  -8.3829  -8.3711  -8.3698
    -8.3667  -8.3656  -8.3653  -8.3605  -8.3583  -8.3455  -8.3373  -8.3200
    -8.3179  -8.3148  -8.3130  -8.3067  -8.2998  -8.2954  -8.2937  -8.2926
    -8.2865  -8.2844  -8.2811  -8.2721  -8.2708  -8.2690  -8.2639  -8.2589
    -8.2560  -8.2503  -8.2447  -8.2392  -8.2203  -8.2063  -8.1972  -8.1936
    -8.1868  -8.1842  -8.1767  -8.1729  -8.1711  -8.1703  -8.1687  -8.1648
    -8.1599  -8.1509  -8.1465  -8.1382  -8.1281  -8.1216  -8.1036  -8.0978
    -8.0970  -8.0816  -8.0739  -8.0687  -8.0612  -8.0603  -8.0588  -8.0532
    -8.0452  -8.0432  -8.0390  -8.0355  -8.0336  -8.0304  -8.0275  -8.0232
    -8.0220  -8.0189  -8.0160  -8.0150  -8.0129  -8.0105  -8.0092  -8.0070
    -8.0051  -8.0029  -8.0014  -8.0003  -8.0002  -7.9973  -7.9968  -7.9945
    -7.9919  -7.9909  -7.9807  -7.9665  -7.9550  -7.9490  -7.9374  -7.9280
    -7.9222  -7.9187  -7.9125  -7.9111  -7.9040  -7.8998  -7.8967  -7.8957
    -7.8917  -7.8903  -7.8875  -7.8863  -7.8840  -7.8832  -7.8737  -7.8700
    -7.8664  -7.8655  -7.8610  -7.8574  -7.8552  -7.8521  -7.8508  -7.8471
    -7.8335  -7.8318  -7.8302  -7.8254  -7.8223  -7.8172  -7.8110  -7.8058
    -7.8011  -7.8005  -7.7878  -7.7756  -7.7710  -7.7691  -7.7669  -7.7577
    -7.7456  -7.7394  -7.7340  -7.7315  -7.7288  -7.7193  -7.7178  -7.7117
    -7.7072  -7.6971  -7.6933  -7.6917  -7.6874  -7.6848  -7.6826  -7.6815
    -7.6801  -7.6782  -7.6767  -7.6752  -7.6740  -7.6729  -7.6724  -7.6699
    -7.6685  -7.6673  -7.6650  -7.6645  -7.6630  -7.6613  -7.6578  -7.6536
    -7.6469  -7.6451  -7.6409  -7.6386  -7.6373  -7.6306  -7.6229  -7.6228
    -7.6210  -7.6187  -7.6161  -7.6137  -7.6116  -7.6089  -7.6075  -7.6067
    -7.6042  -7.6033  -7.6009  -7.5991  -7.5979  -7.5889  -7.5829  -7.5756
    -7.5715  -7.5680  -7.5638  -7.5597  -7.5550  -7.5485  -7.5477  -7.5437
    -7.5406  -7.5341  -7.5321  -7.5314  -7.5293  -7.5277  -7.5257  -7.5233
    -7.5225  -7.5217  -7.5150  -7.5107  -7.5092  -7.5085  -7.5020  -7.4997
    -7.4985  -7.4936  -7.4932  -7.4913  -7.4876  -7.4815  -7.4750  -7.4739
    -7.4613  -7.4601  -7.4587  -7.4566  -7.4547  -7.4540  -7.4524  -7.4514
    -7.4511  -7.4505  -7.4424  -7.4388  -7.4346  -7.4323  -7.4281  -7.4249
    -7.4238  -7.4206  -7.4112  -7.3856  -7.3573  -7.3353  -7.3270  -7.0045
    -6.6388  -6.4973  -6.3946  -5.8749  -5.7245  -5.6912  -5.6420  -5.6213
    -5.6002  -5.5553  -5.1527  -5.1464  -5.1349  -5.1326  -5.1049  -5.0967
    -4.9976  -4.8824  -4.3105  -4.3076  -4.2334  -4.0315  -3.1916  -3.1446
    -3.1019  -3.0872  -3.0655  -3.0375  -2.9077  -2.6520  -2.6268  -2.5107
    -2.3845  -2.3433  -2.3368  -2.3230  -2.2226  -1.9080  -1.9016  -1.8124
    -1.8098  -1.7416  -1.7110  -1.6715  -1.5481  -1.3889  -1.3769  -1.3423
    -1.2918  -1.1138  -1.1069  -0.7939  -0.7764  -0.7563  -0.7346  -0.3092
    -0.2929  -0.2708  -0.2293   0.2516   0.2664   0.3727   0.4092   0.4402
     0.5935   0.6691   0.6752   0.7250   0.9486   1.2574   1.2655   1.2956
     1.3808   1.4064   1.4212   1.4244   1.4487   1.4615   1.4755   1.5526
     1.6662   1.7399   1.7453   1.7660   1.7879   1.8623   2.1466   2.1763
     2.2229   2.2388   2.2859   2.3060   2.6141   2.6317   2.6582   2.7251
     2.8709   2.9026   2.9721   2.9852   3.0065   3.1113   3.1380   3.1449
     3.1543   3.1581   3.2920   3.3752   3.5665   3.7326   3.7590   3.8716
     3.9024   3.9502   3.9637   3.9907   3.9935   4.1317   4.1956   4.2148
     4.2292   4.2641   4.2715   4.2812   4.3136   4.3552   4.3749   4.3969
     4.4228   4.4359   4.4540   4.4584   4.4668   4.5251   4.6185   4.6451
     4.6491   4.6586   4.7190   4.7966   4.8273   4.8792   4.8893   4.8945
     4.9121   4.9196   4.9654   4.9690   5.0351   5.0809   5.1047   5.1105
     5.1231   5.1282   5.1714   5.2306   5.2508   5.2825   5.3334   5.3355
     5.3406   5.3904   5.4456   5.5618   5.5880   5.5952   5.6119   5.6292
     5.6341   5.6518   5.6835   5.6961   5.7236

     the Fermi energy is    -0.8316 ev

!    total energy              =  -27735.84832467 Ry
     estimated scf accuracy    <       0.00000064 Ry
     smearing contrib. (-TS)   =      -0.01772508 Ry
     internal energy E=F+TS    =  -27735.83059959 Ry

     The total energy is F=E-TS. E is the sum of the following terms:
     one-electron contribution = -163178.85667331 Ry
     hartree contribution      =   81414.77748263 Ry
     xc contribution           =   -2537.59298036 Ry
     ewald contribution        =   56575.33920701 Ry
     one-center paw contrib.   =      -9.49763556 Ry

     convergence has been achieved in  16 iterations

     negative rho (up, down):  2.598E-03 0.000E+00

     Forces acting on atoms (cartesian axes, Ry/au):

     atom    1 type  1   force =     0.00003106    0.00078894   -0.00962576
     atom    2 type  1   force =    -0.00056431    0.00033530   -0.01089841
     atom    3 type  1   force =    -0.00030720   -0.00051110   -0.01071395
     atom    4 type  1   force =    -0.00099772   -0.00159333   -0.00970378
     atom    5 type  1   force =     0.00184982    0.00072606   -0.01053218
     atom    6 type  1   force =    -0.00095237    0.00128668   -0.00984944
     atom    7 type  1   force =     0.00066075   -0.01381679   -0.03302913
     atom    8 type  1   force =     0.00020306    0.01383822   -0.02662026
     atom    9 type  1   force =    -0.00037378   -0.00247707   -0.01159147
     atom   10 type  1   force =    -0.00098423   -0.00057322   -0.00826087
     atom   11 type  1   force =    -0.00000828    0.00028770   -0.01070069
     atom   12 type  1   force =    -0.00078363   -0.00081811   -0.01043205
     atom   13 type  1   force =    -0.00098591    0.00017889   -0.01063290
     atom   14 type  1   force =     0.00047229   -0.00021832   -0.01125161
     atom   15 type  1   force =     0.00009778    0.00046505   -0.01276573
     atom   16 type  1   force =     0.00010546    0.00064855    0.03298415
     atom   17 type  1   force =     0.00096189   -0.00041744    0.03180030
     atom   18 type  1   force =    -0.00013961   -0.00035230    0.03052373
     atom   19 type  1   force =     0.00039520    0.00024021    0.03197862
     atom   20 type  1   force =    -0.00008211   -0.00009576    0.03245993
     atom   21 type  1   force =    -0.00073640   -0.00052245    0.03198699
     atom   22 type  1   force =    -0.00081003   -0.01074416    0.02668348
     atom   23 type  1   force =    -0.00046149   -0.00496752   -0.02808229
     atom   24 type  1   force =    -0.00132702    0.01270936    0.02117941
     atom   25 type  1   force =    -0.00051142    0.00516575    0.03099565
     atom   26 type  1   force =     0.00078431    0.00140319    0.03362231
     atom   27 type  1   force =     0.00101681    0.00028027    0.02997101
     atom   28 type  1   force =     0.00036392   -0.00017955    0.03153124
     atom   29 type  1   force =     0.00121875   -0.00026535    0.03027215
     atom   30 type  1   force =     0.00039895   -0.00117137    0.03277561
     atom   31 type  1   force =    -0.00044443    0.00032138   -0.03107598
     atom   32 type  1   force =    -0.00247174   -0.00096002   -0.03175165
     atom   33 type  1   force =    -0.00609506    0.00075084   -0.03565132
     atom   34 type  1   force =    -0.00109149   -0.00063380   -0.03284677
     atom   35 type  1   force =    -0.00039559   -0.00010574   -0.03073096
     atom   36 type  1   force =    -0.00136052    0.00085624   -0.03013331
     atom   37 type  1   force =     0.00081298    0.00134600   -0.03277474
     atom   38 type  1   force =     0.00217159    0.00030796   -0.03037821
     atom   39 type  1   force =    -0.00048904   -0.00218148   -0.03287028
     atom   40 type  1   force =    -0.00135875   -0.00086648   -0.03030119
     atom   41 type  1   force =     0.00090347    0.00049687   -0.03190412
     atom   42 type  1   force =     0.00191417    0.00031780   -0.03428119
     atom   43 type  1   force =     0.00003083   -0.00212777   -0.03299506
     atom   44 type  1   force =     0.00194590    0.00227725   -0.03500249
     atom   45 type  1   force =     0.00088017   -0.00128771   -0.03107573
     atom   46 type  1   force =     0.00233681    0.00029980    0.01162254
     atom   47 type  1   force =     0.00172573    0.00000322    0.01009004
     atom   48 type  1   force =    -0.00797203   -0.00335463    0.00751095
     atom   49 type  1   force =    -0.01214053    0.00313557    0.00656586
     atom   50 type  1   force =     0.00082278   -0.00076170    0.01077180
     atom   51 type  1   force =    -0.00221077    0.00038556    0.01149025
     atom   52 type  1   force =    -0.00221029   -0.00081526    0.01099348
     atom   53 type  1   force =     0.02095591   -0.01060126    0.00117939
     atom   54 type  1   force =     0.03811532    0.01705384   -0.00742418
     atom   55 type  1   force =    -0.00171665   -0.00002525    0.01088179
     atom   56 type  1   force =     0.00126397    0.00082498    0.01211454
     atom   57 type  1   force =     0.00083287   -0.00137160    0.01077636
     atom   58 type  1   force =     0.00059010    0.00085196    0.01011531
     atom   59 type  1   force =     0.00050489   -0.00060486    0.01045626
     atom   60 type  1   force =     0.00108668    0.00005686    0.00976368
     atom   61 type  2   force =    -0.58563112    0.02254002   -0.42878877
     atom   62 type  3   force =    -0.02923221   -0.01980576    0.06119189
     atom   63 type  3   force =     0.57939152   -0.00595316    0.52038776

     Total force =     1.072389     Total SCF correction =     0.004253
     Energy error            =      2.7E-01 Ry
     Gradient error          =      5.9E-01 Ry/Bohr

     number of scf cycles    =   2
     number of bfgs steps    =   1

     energy             old  =  -27735.5778011068 Ry
     energy             new  =  -27735.8483246720 Ry

     CASE: energy            _new < energy            _old

     new trust radius        =       0.6784699458 bohr
     new conv_thr            =       0.0000010000 Ry


ATOMIC_POSITIONS (angstrom)
Zn               1.2182850000        1.3071710000        0.7547080000    0   0   0
Zn               1.2182850000        3.9215310000        0.7547080000    0   0   0
Zn               1.2182850000        6.5358910000        0.7547080000    0   0   0
Zn               1.2182850000        9.1502510000        0.7547080000    0   0   0
Zn               1.2182850000       11.7646110000        0.7547080000    0   0   0
Zn               6.0914560000        1.3071710000        0.7547080000    0   0   0
Zn               6.0914560000        3.9215310000        0.7547080000    0   0   0
Zn               6.0914560000        6.5358910000        0.7547080000    0   0   0
Zn               6.0914560000        9.1502510000        0.7547080000    0   0   0
Zn               6.0914560000       11.7646110000        0.7547080000    0   0   0
Zn              10.9646120000        1.3071710000        0.7547080000    0   0   0
Zn              10.9646120000        3.9215310000        0.7547080000    0   0   0
Zn              10.9646120000        6.5358910000        0.7547080000    0   0   0
Zn              10.9646120000        9.1502510000        0.7547080000    0   0   0
Zn              10.9646120000       11.7646110000        0.7547080000    0   0   0
Zn               1.2182850000       -0.0000080000        3.0188090000    0   0   0
Zn               1.2182850000        2.6143520000        3.0188090000    0   0   0
Zn               1.2178297332        5.2284484788        3.0468377842
Zn               1.2182850000        7.8430720000        3.0188090000    0   0   0
Zn               1.2182850000       10.4574320000        3.0188090000    0   0   0
Zn               6.0911979246       -0.0013643871        3.0483896943
Zn               6.0904469363        2.6015105736        3.0411222274
Zn               6.0013120768        5.1619195972        2.5189581880
Zn               6.0898923594        7.8625775975        3.0354850546
Zn               6.0912285107       10.4624102944        3.0474596979
Zn              10.9646120000       -0.0000080000        3.0188090000    0   0   0
Zn              10.9652290367        2.6145665267        3.0462116218
Zn              10.9652039684        5.2286481314        3.0474992095
Zn              10.9652837566        7.8428066514        3.0465184480
Zn              10.9646120000       10.4574320000        3.0188090000    0   0   0
Zn               3.6548710000        0.0000100000        1.5093920000    0   0   0
Zn               3.6548710000        2.6143700000        1.5093920000    0   0   0
Zn               3.6548710000        5.2287300000        1.5093920000    0   0   0
Zn               3.6548710000        7.8430900000        1.5093920000    0   0   0
Zn               3.6548710000       10.4574500000        1.5093920000    0   0   0
Zn               8.5280260000        0.0000100000        1.5093920000    0   0   0
Zn               8.5280260000        2.6143700000        1.5093920000    0   0   0
Zn               8.5280260000        5.2287300000        1.5093920000    0   0   0
Zn               8.5280260000        7.8430900000        1.5093920000    0   0   0
Zn               8.5280260000       10.4574500000        1.5093920000    0   0   0
Zn              13.4011970000        0.0000100000        1.5093920000    0   0   0
Zn              13.4011970000        2.6143700000        1.5093920000    0   0   0
Zn              13.4011970000        5.2287300000        1.5093920000    0   0   0
Zn              13.4011970000        7.8430900000        1.5093920000    0   0   0
Zn              13.4011970000       10.4574500000        1.5093920000    0   0   0
Zn               3.6548710000       -1.3071690000        3.7734930000    0   0   0
Zn               3.6561973544        1.3073540323        3.7830193944
Zn               3.6453851275        3.9173781342        3.7804619833
Zn               3.6401656223        6.5401600500        3.7793777805
Zn               3.6556253136        9.1493417051        3.7836383439
Zn               8.5280260000       -1.3071690000        3.7734930000    0   0   0
Zn               8.5265526651        1.3065996562        3.7835750751
Zn               8.5530998056        3.9086328214        3.7751803613
Zn               8.5701530303        6.5551690713        3.7684358848
Zn               8.5268732813        9.1499551691        3.7834222739
Zn              13.4011970000       -1.3071690000        3.7734930000    0   0   0
Zn              13.4011970000        1.3071910000        3.7734930000    0   0   0
Zn              13.4011970000        3.9215510000        3.7734930000    0   0   0
Zn              13.4011970000        6.5359110000        3.7734930000    0   0   0
Zn              13.4011970000        9.1502710000        3.7734930000    0   0   0
O                6.1970913699        5.4937121390        4.6722422381
H                5.5425721459        4.9924422677        4.8284437853
H                7.2872534314        5.4711568383        5.3717587488



     Writing config-only to output data dir /home/ys/Research/PSID_server_room/qe/zinc_surface_water.relax/Zn_100_water/pwscf.save/ :
     XML data file
     NEW-OLD atomic charge density approx. for the potential

     negative rho (up, down):  2.868E-03 0.000E+00

     total cpu time spent up to now is     3906.1 secs

     Self-consistent Calculation

     iteration #  1     ecut=    50.00 Ry     beta= 0.70
     Davidson diagonalization with overlap
     c_bands:  1 eigenvalues not converged
     ethr =  1.00E-06,  avg # of iterations = 20.0

     negative rho (up, down):  2.564E-03 0.000E+00

     total cpu time spent up to now is     4178.4 secs

     total energy              =  -27735.81188202 Ry
     estimated scf accuracy    <       0.11071008 Ry

     iteration #  2     ecut=    50.00 Ry     beta= 0.70
     Davidson diagonalization with overlap
     ethr =  9.16E-06,  avg # of iterations = 12.0

     negative rho (up, down):  2.598E-03 0.000E+00

     total cpu time spent up to now is     4297.8 secs

     total energy              =  -27735.70597350 Ry
     estimated scf accuracy    <       1.18433860 Ry

     iteration #  3     ecut=    50.00 Ry     beta= 0.70
     Davidson diagonalization with overlap
     ethr =  9.16E-06,  avg # of iterations =  9.0

     negative rho (up, down):  2.617E-03 0.000E+00

     total cpu time spent up to now is     4411.8 secs

     total energy              =  -27735.77464370 Ry
     estimated scf accuracy    <       1.00235364 Ry

     iteration #  4     ecut=    50.00 Ry     beta= 0.70
     Davidson diagonalization with overlap
     ethr =  9.16E-06,  avg # of iterations =  8.0

     negative rho (up, down):  2.610E-03 0.000E+00

     total cpu time spent up to now is     4518.5 secs

     total energy              =  -27735.81919253 Ry
     estimated scf accuracy    <       0.37466177 Ry

     iteration #  5     ecut=    50.00 Ry     beta= 0.70
     Davidson diagonalization with overlap
     ethr =  9.16E-06,  avg # of iterations =  6.0

     negative rho (up, down):  2.610E-03 0.000E+00

     total cpu time spent up to now is     4622.6 secs

     total energy              =  -27735.84518383 Ry
     estimated scf accuracy    <       0.11416250 Ry

     iteration #  6     ecut=    50.00 Ry     beta= 0.70
     Davidson diagonalization with overlap
     ethr =  9.16E-06,  avg # of iterations =  3.0

     negative rho (up, down):  2.611E-03 0.000E+00

     total cpu time spent up to now is     4720.9 secs

     total energy              =  -27735.85210420 Ry
     estimated scf accuracy    <       0.05505340 Ry

     iteration #  7     ecut=    50.00 Ry     beta= 0.70
     Davidson diagonalization with overlap
     ethr =  4.56E-06,  avg # of iterations =  3.0

     negative rho (up, down):  2.609E-03 0.000E+00

     total cpu time spent up to now is     4816.9 secs

     total energy              =  -27735.85504340 Ry
     estimated scf accuracy    <       0.03486331 Ry

     iteration #  8     ecut=    50.00 Ry     beta= 0.70
     Davidson diagonalization with overlap
     ethr =  2.89E-06,  avg # of iterations =  2.0

     negative rho (up, down):  2.608E-03 0.000E+00

     total cpu time spent up to now is     4911.0 secs

     total energy              =  -27735.85687093 Ry
     estimated scf accuracy    <       0.00246753 Ry

     iteration #  9     ecut=    50.00 Ry     beta= 0.70
     Davidson diagonalization with overlap
     ethr =  2.04E-07,  avg # of iterations =  2.0

     negative rho (up, down):  2.608E-03 0.000E+00

     total cpu time spent up to now is     5006.2 secs

     total energy              =  -27735.85703822 Ry
     estimated scf accuracy    <       0.00218565 Ry

     iteration # 10     ecut=    50.00 Ry     beta= 0.70
     Davidson diagonalization with overlap
     ethr =  1.81E-07,  avg # of iterations =  2.0

     negative rho (up, down):  2.608E-03 0.000E+00

     total cpu time spent up to now is     5100.9 secs

     total energy              =  -27735.85724473 Ry
     estimated scf accuracy    <       0.00024707 Ry

     iteration # 11     ecut=    50.00 Ry     beta= 0.70
     Davidson diagonalization with overlap
     ethr =  2.05E-08,  avg # of iterations =  2.0

     negative rho (up, down):  2.608E-03 0.000E+00

     total cpu time spent up to now is     5196.9 secs

     total energy              =  -27735.85727846 Ry
     estimated scf accuracy    <       0.00004939 Ry

     iteration # 12     ecut=    50.00 Ry     beta= 0.70
     Davidson diagonalization with overlap
     ethr =  4.09E-09,  avg # of iterations =  2.0

     negative rho (up, down):  2.609E-03 0.000E+00

     total cpu time spent up to now is     5295.8 secs

     total energy              =  -27735.85728479 Ry
     estimated scf accuracy    <       0.00003589 Ry

     iteration # 13     ecut=    50.00 Ry     beta= 0.70
     Davidson diagonalization with overlap
     ethr =  2.97E-09,  avg # of iterations =  2.0

     negative rho (up, down):  2.608E-03 0.000E+00

     total cpu time spent up to now is     5391.9 secs

     total energy              =  -27735.85728933 Ry
     estimated scf accuracy    <       0.00001418 Ry

     iteration # 14     ecut=    50.00 Ry     beta= 0.70
     Davidson diagonalization with overlap
     ethr =  1.17E-09,  avg # of iterations =  1.0

     negative rho (up, down):  2.608E-03 0.000E+00

     total cpu time spent up to now is     5470.9 secs

     total energy              =  -27735.85729021 Ry
     estimated scf accuracy    <       0.00001126 Ry

     iteration # 15     ecut=    50.00 Ry     beta= 0.70
     Davidson diagonalization with overlap
     ethr =  9.32E-10,  avg # of iterations =  1.0

     negative rho (up, down):  2.608E-03 0.000E+00

     total cpu time spent up to now is     5549.8 secs

     End of self-consistent calculation

          k = 0.0000 0.0000 0.0000 ( 94390 PWs)   bands (ev):

  -127.4911-127.2503-127.1743-127.1187-127.0967-127.0956-127.0926-127.0902
  -127.0872-127.0857-127.0854-127.0844-127.0815-127.0802-127.0795-127.0787
  -127.0773-127.0726-127.0725-127.0706-127.0691-127.0682-127.0657-127.0630
  -127.0615-127.0606-127.0605-127.0599-127.0589-127.0558-127.0556-127.0532
  -127.0484-127.0471-127.0465-127.0451-127.0433-127.0432-127.0422-127.0414
  -127.0405-127.0396-127.0343-127.0343-127.0337-127.0317-127.0316-127.0312
  -127.0278-127.0245-127.0214-127.0191-127.0180-127.0172-127.0144-127.0113
  -127.0072-127.0006-126.9938-126.9930 -81.6891 -81.6561 -81.6261 -81.4393
   -81.3864 -81.3761 -81.3598 -81.3144 -81.3036 -81.2825 -81.2680 -81.2665
   -81.2664 -81.2631 -81.2597 -81.2579 -81.2571 -81.2551 -81.2538 -81.2520
   -81.2515 -81.2503 -81.2500 -81.2489 -81.2464 -81.2457 -81.2445 -81.2440
   -81.2432 -81.2425 -81.2423 -81.2420 -81.2410 -81.2403 -81.2395 -81.2393
   -81.2392 -81.2386 -81.2365 -81.2355 -81.2354 -81.2345 -81.2342 -81.2341
   -81.2340 -81.2326 -81.2322 -81.2316 -81.2311 -81.2309 -81.2303 -81.2296
   -81.2293 -81.2287 -81.2286 -81.2282 -81.2277 -81.2260 -81.2252 -81.2249
   -81.2239 -81.2239 -81.2235 -81.2226 -81.2226 -81.2220 -81.2216 -81.2215
   -81.2203 -81.2197 -81.2195 -81.2177 -81.2175 -81.2166 -81.2164 -81.2163
   -81.2157 -81.2156 -81.2154 -81.2153 -81.2149 -81.2145 -81.2144 -81.2139
   -81.2135 -81.2119 -81.2113 -81.2108 -81.2106 -81.2105 -81.2098 -81.2098
   -81.2094 -81.2082 -81.2071 -81.2070 -81.2059 -81.2053 -81.2043 -81.2041
   -81.2038 -81.2036 -81.2026 -81.2024 -81.2014 -81.2011 -81.2008 -81.2001
   -81.1999 -81.1993 -81.1986 -81.1982 -81.1974 -81.1973 -81.1959 -81.1945
   -81.1938 -81.1926 -81.1926 -81.1924 -81.1918 -81.1917 -81.1912 -81.1911
   -81.1906 -81.1903 -81.1898 -81.1888 -81.1887 -81.1869 -81.1865 -81.1858
   -81.1851 -81.1839 -81.1831 -81.1826 -81.1825 -81.1817 -81.1812 -81.1810
   -81.1802 -81.1801 -81.1782 -81.1773 -81.1763 -81.1747 -81.1745 -81.1738
   -81.1729 -81.1720 -81.1718 -81.1714 -81.1705 -81.1705 -81.1694 -81.1674
   -81.1670 -81.1667 -81.1663 -81.1653 -81.1630 -81.1614 -81.1612 -81.1603
   -81.1597 -81.1589 -81.1569 -81.1560 -81.1555 -81.1533 -81.1526 -81.1510
   -81.1509 -81.1493 -81.1442 -81.1433 -81.1373 -81.1361 -81.1351 -81.1322
   -22.7725 -10.7316 -10.1238  -9.6767  -9.4731  -9.3718  -9.2585  -9.2366
    -9.1968  -9.0478  -9.0171  -8.9167  -8.8795  -8.8589  -8.8421  -8.8155
    -8.8112  -8.8110  -8.7968  -8.7841  -8.7765  -8.7612  -8.7524  -8.7373
    -8.6788  -8.6500  -8.6481  -8.6471  -8.6430  -8.6400  -8.6357  -8.6239
    -8.6217  -8.6133  -8.6020  -8.5956  -8.5923  -8.5834  -8.5775  -8.5752
    -8.5637  -8.5575  -8.5560  -8.5549  -8.5496  -8.5470  -8.5441  -8.5383
    -8.5348  -8.5240  -8.5195  -8.5106  -8.5073  -8.4958  -8.4943  -8.4793
    -8.4784  -8.4717  -8.4652  -8.4593  -8.4572  -8.4558  -8.4516  -8.4506
    -8.4476  -8.4439  -8.4381  -8.4359  -8.4138  -8.4024  -8.4003  -8.3977
    -8.3960  -8.3942  -8.3929  -8.3905  -8.3633  -8.3610  -8.3584  -8.3540
    -8.3536  -8.3439  -8.3376  -8.3325  -8.3319  -8.3299  -8.3231  -8.3203
    -8.3143  -8.3046  -8.3003  -8.2982  -8.2974  -8.2934  -8.2907  -8.2862
    -8.2816  -8.2754  -8.2732  -8.2522  -8.2479  -8.2345  -8.2280  -8.2244
    -8.2230  -8.2084  -8.2068  -8.2053  -8.2046  -8.1998  -8.1973  -8.1955
    -8.1859  -8.1835  -8.1834  -8.1729  -8.1528  -8.1524  -8.1491  -8.1318
    -8.1193  -8.1169  -8.1113  -8.1011  -8.0990  -8.0884  -8.0865  -8.0822
    -8.0753  -8.0697  -8.0680  -8.0645  -8.0642  -8.0608  -8.0584  -8.0541
    -8.0493  -8.0483  -8.0460  -8.0434  -8.0420  -8.0403  -8.0396  -8.0360
    -8.0350  -8.0333  -8.0305  -8.0275  -8.0257  -8.0222  -8.0201  -8.0185
    -8.0149  -8.0046  -7.9976  -7.9876  -7.9846  -7.9653  -7.9612  -7.9582
    -7.9531  -7.9486  -7.9462  -7.9391  -7.9373  -7.9369  -7.9322  -7.9275
    -7.9260  -7.9214  -7.9179  -7.9126  -7.9102  -7.9054  -7.9016  -7.8946
    -7.8912  -7.8907  -7.8905  -7.8870  -7.8850  -7.8801  -7.8780  -7.8737
    -7.8699  -7.8663  -7.8598  -7.8535  -7.8504  -7.8493  -7.8410  -7.8346
    -7.8312  -7.8264  -7.8183  -7.8129  -7.8046  -7.8023  -7.7983  -7.7890
    -7.7807  -7.7722  -7.7683  -7.7567  -7.7547  -7.7512  -7.7496  -7.7453
    -7.7433  -7.7285  -7.7258  -7.7233  -7.7214  -7.7171  -7.7142  -7.7139
    -7.7127  -7.7097  -7.7088  -7.7073  -7.7065  -7.7043  -7.7027  -7.7024
    -7.6998  -7.6978  -7.6960  -7.6933  -7.6915  -7.6876  -7.6836  -7.6825
    -7.6810  -7.6793  -7.6718  -7.6670  -7.6667  -7.6649  -7.6626  -7.6540
    -7.6523  -7.6495  -7.6460  -7.6452  -7.6423  -7.6419  -7.6404  -7.6382
    -7.6359  -7.6336  -7.6321  -7.6279  -7.6252  -7.6185  -7.6129  -7.6050
    -7.6014  -7.5991  -7.5953  -7.5931  -7.5875  -7.5810  -7.5736  -7.5722
    -7.5692  -7.5680  -7.5635  -7.5589  -7.5586  -7.5573  -7.5556  -7.5525
    -7.5517  -7.5496  -7.5489  -7.5476  -7.5441  -7.5404  -7.5348  -7.5316
    -7.5293  -7.5286  -7.5243  -7.5235  -7.5155  -7.5135  -7.5100  -7.5035
    -7.4920  -7.4907  -7.4880  -7.4875  -7.4854  -7.4844  -7.4814  -7.4810
    -7.4797  -7.4779  -7.4736  -7.4713  -7.4654  -7.4632  -7.4618  -7.4604
    -7.4491  -7.4481  -7.4186  -7.3920  -7.3758  -7.3658  -7.3474  -6.6044
    -6.5156  -6.4755  -5.9499  -5.8560  -5.7402  -5.6904  -5.6580  -5.6496
    -5.6273  -5.4247  -5.2100  -5.1912  -5.1820  -5.1693  -5.1326  -5.1151
    -4.9440  -4.8113  -4.3567  -4.3522  -4.2081  -4.0145  -3.2325  -3.2001
    -3.1373  -3.1105  -3.0911  -3.0489  -2.9305  -2.7014  -2.6558  -2.5476
    -2.4149  -2.3784  -2.3642  -2.3097  -2.2579  -1.9427  -1.9306  -1.8690
    -1.8604  -1.7450  -1.7165  -1.6526  -1.5741  -1.4626  -1.4030  -1.3706
    -1.3216  -1.1566  -1.1342  -0.8420  -0.8120  -0.7753  -0.7423  -0.4097
    -0.3267  -0.2956  -0.2594   0.2175   0.2419   0.3224   0.3925   0.4082
     0.5866   0.6231   0.6292   0.6815   0.8794   1.1161   1.2165   1.2654
     1.3161   1.3787   1.3934   1.4010   1.4088   1.4252   1.4506   1.5506
     1.6392   1.6851   1.7077   1.7397   1.7767   1.8178   1.9615   2.1485
     2.1930   2.2124   2.2674   2.2895   2.4933   2.5850   2.6328   2.6443
     2.7949   2.8455   2.8528   2.9934   3.0267   3.0883   3.1097   3.1136
     3.1277   3.1539   3.2349   3.3663   3.5117   3.5941   3.7655   3.7906
     3.9189   3.9345   3.9493   3.9685   3.9696   4.0562   4.1644   4.1955
     4.2118   4.2341   4.2692   4.2770   4.2894   4.3211   4.3342   4.3449
     4.4021   4.4142   4.4328   4.4435   4.4638   4.4966   4.5653   4.6451
     4.6512   4.6597   4.6690   4.7797   4.8090   4.8212   4.8402   4.8501
     4.8747   4.8981   4.9558   4.9782   5.0270   5.0657   5.0928   5.1137
     5.1214   5.1258   5.1603   5.1738   5.2230   5.2575   5.3294   5.3338
     5.3441   5.3589   5.4108   5.5199   5.5652   5.5790   5.5940   5.6080
     5.6253   5.6363   5.6648   5.6855   5.6977

     the Fermi energy is    -0.8625 ev

!    total energy              =  -27735.85729017 Ry
     estimated scf accuracy    <       0.00000093 Ry
     smearing contrib. (-TS)   =      -0.01691529 Ry
     internal energy E=F+TS    =  -27735.84037488 Ry

     The total energy is F=E-TS. E is the sum of the following terms:
     one-electron contribution = -163107.57924801 Ry
     hartree contribution      =   81378.14748886 Ry
     xc contribution           =   -2537.29411729 Ry
     ewald contribution        =   56540.40453557 Ry
     one-center paw contrib.   =      -9.51903401 Ry

     convergence has been achieved in  15 iterations

     negative rho (up, down):  2.608E-03 0.000E+00

     Forces acting on atoms (cartesian axes, Ry/au):

     atom    1 type  1   force =    -0.00011953    0.00038930   -0.00991779
     atom    2 type  1   force =     0.00013451   -0.00014874   -0.01001823
     atom    3 type  1   force =    -0.00008857   -0.00042661   -0.01007132
     atom    4 type  1   force =    -0.00077427   -0.00100642   -0.01079862
     atom    5 type  1   force =     0.00166048    0.00096900   -0.01006246
     atom    6 type  1   force =    -0.00051724    0.00126515   -0.00846316
     atom    7 type  1   force =     0.00539236   -0.05965328   -0.08645152
     atom    8 type  1   force =     0.00314364    0.04843630   -0.05797020
     atom    9 type  1   force =    -0.00062271   -0.00416721   -0.00947626
     atom   10 type  1   force =    -0.00009913   -0.00088490   -0.00546564
     atom   11 type  1   force =     0.00087265    0.00057906   -0.00875776
     atom   12 type  1   force =    -0.00031022   -0.00184445   -0.00828240
     atom   13 type  1   force =    -0.00134171    0.00066592   -0.00823005
     atom   14 type  1   force =     0.00143553    0.00012849   -0.00901281
     atom   15 type  1   force =    -0.00049421    0.00067123   -0.01229104
     atom   16 type  1   force =     0.00088918    0.00057081    0.03155317
     atom   17 type  1   force =    -0.00017874   -0.00069054    0.03095639
     atom   18 type  1   force =     0.00044688   -0.00030995    0.02909919
     atom   19 type  1   force =    -0.00032087    0.00086522    0.03146015
     atom   20 type  1   force =     0.00048394   -0.00065126    0.03242303
     atom   21 type  1   force =     0.00007366   -0.00109243    0.02914160
     atom   22 type  1   force =     0.00057713   -0.00935163    0.02625617
     atom   23 type  1   force =     0.00770258    0.01444328    0.14922974
     atom   24 type  1   force =     0.00017368    0.00478830    0.02387888
     atom   25 type  1   force =    -0.00047252    0.00694476    0.02804731
     atom   26 type  1   force =     0.00086775    0.00127744    0.03337500
     atom   27 type  1   force =     0.00075064   -0.00077679    0.02763864
     atom   28 type  1   force =     0.00068336   -0.00000629    0.02821996
     atom   29 type  1   force =     0.00062116    0.00081223    0.02819744
     atom   30 type  1   force =     0.00023145   -0.00086471    0.03269515
     atom   31 type  1   force =     0.00096084    0.00032687   -0.02983526
     atom   32 type  1   force =    -0.00189940   -0.00159768   -0.03253247
     atom   33 type  1   force =    -0.01648001    0.00140107   -0.03643551
     atom   34 type  1   force =     0.00097923   -0.00039035   -0.03274447
     atom   35 type  1   force =     0.00135538   -0.00006584   -0.02949361
     atom   36 type  1   force =    -0.00165949    0.00078571   -0.02946780
     atom   37 type  1   force =     0.00035431    0.00078999   -0.03113630
     atom   38 type  1   force =     0.00654578   -0.00038390   -0.02959226
     atom   39 type  1   force =    -0.00119654   -0.00154944   -0.03099675
     atom   40 type  1   force =    -0.00159775    0.00040962   -0.02967339
     atom   41 type  1   force =    -0.00023402    0.00023764   -0.03234758
     atom   42 type  1   force =    -0.00019294   -0.00037653   -0.03549851
     atom   43 type  1   force =    -0.00016834   -0.00236706   -0.03388809
     atom   44 type  1   force =     0.00073149    0.00343403   -0.03593999
     atom   45 type  1   force =    -0.00075905   -0.00094473   -0.03175620
     atom   46 type  1   force =     0.00395410    0.00000307    0.01093221
     atom   47 type  1   force =     0.00362425   -0.00140256    0.00963998
     atom   48 type  1   force =    -0.01145499   -0.00565814    0.00423260
     atom   49 type  1   force =    -0.00796190    0.00332451    0.00788475
     atom   50 type  1   force =     0.00244765    0.00046784    0.00971903
     atom   51 type  1   force =    -0.00322667    0.00027777    0.01141920
     atom   52 type  1   force =    -0.00356303   -0.00156416    0.01004506
     atom   53 type  1   force =     0.00675264    0.00160499    0.01202030
     atom   54 type  1   force =     0.01484008    0.00072198    0.01234625
     atom   55 type  1   force =    -0.00244068    0.00132685    0.00981352
     atom   56 type  1   force =    -0.00176969    0.00018116    0.01144758
     atom   57 type  1   force =    -0.00044815   -0.00131276    0.01026280
     atom   58 type  1   force =     0.00004874    0.00091275    0.01030739
     atom   59 type  1   force =     0.00009898   -0.00084688    0.01083930
     atom   60 type  1   force =     0.00003493    0.00111788    0.00937144
     atom   61 type  2   force =     0.41326169    0.28193988   -0.01759482
     atom   62 type  3   force =    -0.32096460   -0.26838416    0.12776319
     atom   63 type  3   force =    -0.10077369   -0.01335070   -0.07601412

     Total force =     0.698698     Total SCF correction =     0.006322
     Energy error            =      9.0E-03 Ry
     Gradient error          =      4.1E-01 Ry/Bohr

     number of scf cycles    =   3
     number of bfgs steps    =   2

     energy             old  =  -27735.8483246720 Ry
     energy             new  =  -27735.8572901743 Ry

     CASE: energy            _new < energy            _old

     new trust radius        =       0.3423738119 bohr
     new conv_thr            =       0.0000008966 Ry


[...]
     estimated scf accuracy    <       0.00001375 Ry

     iteration # 10     ecut=    50.00 Ry     beta= 0.70
     Davidson diagonalization with overlap
     ethr =  1.14E-09,  avg # of iterations =  3.0

     negative rho (up, down):  2.560E-03 0.000E+00

     total cpu time spent up to now is     9897.5 secs

     total energy              =  -27736.02117390 Ry
     estimated scf accuracy    <       0.00002856 Ry

     iteration # 11     ecut=    50.00 Ry     beta= 0.70
     Davidson diagonalization with overlap
     ethr =  1.14E-09,  avg # of iterations =  3.0

     negative rho (up, down):  2.560E-03 0.000E+00

     total cpu time spent up to now is     9992.3 secs

     total energy              =  -27736.02117677 Ry
     estimated scf accuracy    <       0.00000485 Ry

     iteration # 12     ecut=    50.00 Ry     beta= 0.70
     Davidson diagonalization with overlap
     ethr =  4.02E-10,  avg # of iterations =  2.0

     negative rho (up, down):  2.560E-03 0.000E+00

     total cpu time spent up to now is    10087.7 secs

     End of self-consistent calculation

          k = 0.0000 0.0000 0.0000 ( 94390 PWs)   bands (ev):

  -127.2741-127.0794-127.0570-127.0479-127.0453-127.0443-127.0434-127.0414
  -127.0405-127.0400-127.0269-127.0265-127.0254-127.0250-127.0244-127.0231
  -127.0213-127.0211-127.0199-127.0197-127.0185-127.0184-127.0182-127.0169
  -127.0149-127.0132-127.0113-127.0106-127.0105-127.0100-127.0096-127.0090
  -127.0078-127.0070-127.0070-127.0067-127.0058-127.0057-127.0048-127.0037
  -127.0014-127.0004-126.9973-126.9957-126.9947-126.9929-126.9913-126.9888
  -126.9879-126.9838-126.9803-126.9800-126.9800-126.9768-126.9765-126.9721
  -126.9683-126.9656-126.9620-126.9602 -81.4522 -81.4404 -81.4181 -81.2532
   -81.2323 -81.2256 -81.2226 -81.2169 -81.2166 -81.2156 -81.2146 -81.2120
   -81.2107 -81.2098 -81.2082 -81.2041 -81.2017 -81.1999 -81.1997 -81.1993
   -81.1987 -81.1984 -81.1983 -81.1976 -81.1941 -81.1939 -81.1924 -81.1914
   -81.1912 -81.1910 -81.1906 -81.1897 -81.1892 -81.1889 -81.1880 -81.1867
   -81.1866 -81.1861 -81.1851 -81.1848 -81.1847 -81.1844 -81.1839 -81.1834
   -81.1826 -81.1826 -81.1825 -81.1818 -81.1812 -81.1809 -81.1806 -81.1804
   -81.1803 -81.1793 -81.1791 -81.1787 -81.1776 -81.1773 -81.1766 -81.1760
   -81.1756 -81.1754 -81.1751 -81.1746 -81.1741 -81.1739 -81.1727 -81.1716
   -81.1711 -81.1702 -81.1702 -81.1693 -81.1691 -81.1687 -81.1684 -81.1677
   -81.1675 -81.1669 -81.1668 -81.1660 -81.1657 -81.1654 -81.1653 -81.1652
   -81.1649 -81.1647 -81.1640 -81.1638 -81.1630 -81.1627 -81.1625 -81.1622
   -81.1620 -81.1614 -81.1613 -81.1612 -81.1606 -81.1603 -81.1602 -81.1588
   -81.1581 -81.1578 -81.1574 -81.1570 -81.1556 -81.1553 -81.1549 -81.1547
   -81.1546 -81.1543 -81.1542 -81.1539 -81.1534 -81.1532 -81.1528 -81.1519
   -81.1514 -81.1511 -81.1510 -81.1506 -81.1501 -81.1499 -81.1497 -81.1496
   -81.1495 -81.1492 -81.1490 -81.1486 -81.1482 -81.1476 -81.1473 -81.1472
   -81.1465 -81.1460 -81.1444 -81.1441 -81.1433 -81.1429 -81.1420 -81.1416
   -81.1413 -81.1410 -81.1395 -81.1391 -81.1381 -81.1372 -81.1360 -81.1359
   -81.1355 -81.1351 -81.1346 -81.1345 -81.1333 -81.1330 -81.1321 -81.1296
   -81.1294 -81.1281 -81.1279 -81.1272 -81.1255 -81.1254 -81.1236 -81.1216
   -81.1209 -81.1197 -81.1195 -81.1191 -81.1172 -81.1154 -81.1132 -81.1126
   -81.1113 -81.1112 -81.1106 -81.1093 -81.1078 -81.1020 -81.0999 -81.0976
   -22.9715 -11.8894 -10.0247  -9.5366  -9.4041  -9.2804  -9.1849  -9.1105
    -8.8697  -8.8210  -8.8129  -8.7966  -8.7889  -8.7779  -8.7720  -8.7625
    -8.7554  -8.7453  -8.7299  -8.7078  -8.6850  -8.6721  -8.6561  -8.6241
    -8.6049  -8.5977  -8.5933  -8.5909  -8.5854  -8.5822  -8.5807  -8.5723
    -8.5508  -8.5469  -8.5431  -8.5394  -8.5386  -8.5269  -8.5236  -8.5130
    -8.5046  -8.5031  -8.5018  -8.4991  -8.4950  -8.4909  -8.4886  -8.4845
    -8.4771  -8.4710  -8.4681  -8.4548  -8.4474  -8.4347  -8.4240  -8.4209
    -8.4156  -8.4121  -8.4085  -8.4048  -8.4020  -8.4013  -8.3948  -8.3926
    -8.3891  -8.3834  -8.3822  -8.3735  -8.3680  -8.3572  -8.3544  -8.3465
    -8.3456  -8.3395  -8.3352  -8.3274  -8.3212  -8.3129  -8.3098  -8.3005
    -8.2971  -8.2901  -8.2883  -8.2869  -8.2787  -8.2755  -8.2752  -8.2724
    -8.2670  -8.2588  -8.2530  -8.2481  -8.2437  -8.2374  -8.2340  -8.2281
    -8.2253  -8.2222  -8.2140  -8.2074  -8.2052  -8.1857  -8.1790  -8.1772
    -8.1715  -8.1686  -8.1683  -8.1640  -8.1613  -8.1540  -8.1530  -8.1490
    -8.1405  -8.1336  -8.1300  -8.1215  -8.1127  -8.1016  -8.0895  -8.0800
    -8.0637  -8.0616  -8.0596  -8.0525  -8.0498  -8.0445  -8.0400  -8.0369
    -8.0313  -8.0261  -8.0223  -8.0181  -8.0139  -8.0101  -8.0071  -8.0036
    -7.9999  -7.9981  -7.9965  -7.9953  -7.9933  -7.9928  -7.9904  -7.9894
    -7.9874  -7.9864  -7.9855  -7.9837  -7.9815  -7.9783  -7.9769  -7.9725
    -7.9702  -7.9687  -7.9588  -7.9448  -7.9405  -7.9275  -7.9187  -7.9126
    -7.9056  -7.8959  -7.8925  -7.8891  -7.8874  -7.8833  -7.8810  -7.8809
    -7.8755  -7.8752  -7.8721  -7.8665  -7.8603  -7.8586  -7.8563  -7.8530
    -7.8521  -7.8499  -7.8476  -7.8429  -7.8410  -7.8391  -7.8338  -7.8246
    -7.8214  -7.8195  -7.8174  -7.8131  -7.8106  -7.8004  -7.7960  -7.7937
    -7.7839  -7.7795  -7.7732  -7.7620  -7.7580  -7.7564  -7.7507  -7.7445
    -7.7303  -7.7234  -7.7204  -7.7190  -7.7118  -7.7082  -7.7050  -7.6940
    -7.6918  -7.6816  -7.6793  -7.6786  -7.6742  -7.6720  -7.6689  -7.6683
    -7.6680  -7.6669  -7.6656  -7.6643  -7.6628  -7.6617  -7.6605  -7.6590
    -7.6572  -7.6571  -7.6554  -7.6512  -7.6507  -7.6474  -7.6465  -7.6426
    -7.6359  -7.6342  -7.6318  -7.6288  -7.6268  -7.6193  -7.6115  -7.6104
    -7.6086  -7.6056  -7.6031  -7.6005  -7.5987  -7.5964  -7.5953  -7.5944
    -7.5932  -7.5913  -7.5912  -7.5868  -7.5857  -7.5779  -7.5713  -7.5620
    -7.5566  -7.5548  -7.5524  -7.5493  -7.5479  -7.5404  -7.5333  -7.5310
    -7.5305  -7.5270  -7.5216  -7.5204  -7.5186  -7.5172  -7.5142  -7.5131
    -7.5114  -7.5093  -7.5049  -7.5018  -7.4979  -7.4962  -7.4959  -7.4895
    -7.4873  -7.4828  -7.4817  -7.4803  -7.4751  -7.4722  -7.4637  -7.4627
    -7.4532  -7.4526  -7.4461  -7.4457  -7.4433  -7.4419  -7.4413  -7.4408
    -7.4393  -7.4360  -7.4326  -7.4321  -7.4233  -7.4206  -7.4147  -7.4117
    -7.4102  -7.4081  -7.3948  -7.3582  -7.3345  -7.3215  -7.3093  -6.8557
    -6.4697  -6.4560  -6.1040  -5.8772  -5.6929  -5.6477  -5.6063  -5.5940
    -5.5610  -5.4856  -5.1853  -5.1646  -5.1558  -5.1232  -5.0763  -5.0613
    -4.9334  -4.8595  -4.3381  -4.3342  -4.2446  -4.0449  -3.2087  -3.1542
    -3.0713  -3.0527  -3.0250  -2.9949  -2.8758  -2.6636  -2.6434  -2.5034
    -2.4127  -2.3635  -2.3507  -2.3143  -2.2340  -1.9023  -1.8801  -1.8412
    -1.8313  -1.7169  -1.6780  -1.6624  -1.5535  -1.4081  -1.3976  -1.3523
    -1.3078  -1.0890  -1.0678  -0.7808  -0.7655  -0.7291  -0.6899  -0.3276
    -0.3256  -0.2910  -0.2514   0.2769   0.2990   0.3635   0.3933   0.4383
     0.5876   0.6581   0.6735   0.7101   0.9220   1.2567   1.2925   1.2971
     1.3778   1.3816   1.4049   1.4179   1.4337   1.4635   1.4810   1.5450
     1.6487   1.7441   1.7749   1.7980   1.8339   1.8681   2.0988   2.1639
     2.2183   2.2409   2.3085   2.3153   2.5896   2.5942   2.6509   2.6822
     2.8585   2.8843   2.9100   2.9751   3.0216   3.1082   3.1374   3.1580
     3.1633   3.1700   3.2743   3.3705   3.5600   3.6988   3.7515   3.8351
     3.8757   3.9405   3.9500   3.9738   3.9872   4.0662   4.1465   4.1806
     4.2050   4.2474   4.2673   4.2779   4.2948   4.3337   4.3510   4.3743
     4.4097   4.4293   4.4381   4.4490   4.4611   4.5022   4.5831   4.6386
     4.6452   4.6543   4.6865   4.7435   4.8052   4.8553   4.8812   4.8860
     4.9014   4.9124   4.9658   4.9813   5.0356   5.0730   5.0956   5.1084
     5.1189   5.1207   5.1676   5.2488   5.2658   5.2820   5.3095   5.3285
     5.3382   5.3642   5.3708   5.5162   5.5690   5.5846   5.6030   5.6202
     5.6263   5.6308   5.6860   5.6958   5.7204

     the Fermi energy is    -0.8103 ev

!    total energy              =  -27736.02117707 Ry
     estimated scf accuracy    <       0.00000056 Ry
     smearing contrib. (-TS)   =      -0.01722109 Ry
     internal energy E=F+TS    =  -27736.00395597 Ry

     The total energy is F=E-TS. E is the sum of the following terms:
     one-electron contribution = -162779.35737953 Ry
     hartree contribution      =   81216.01486183 Ry
     xc contribution           =   -2537.16296011 Ry
     ewald contribution        =   56374.01973156 Ry
     one-center paw contrib.   =      -9.51820973 Ry

     convergence has been achieved in  12 iterations

     negative rho (up, down):  2.560E-03 0.000E+00

     Forces acting on atoms (cartesian axes, Ry/au):

     atom    1 type  1   force =     0.00001964    0.00013535   -0.00815188
     atom    2 type  1   force =    -0.00045733    0.00236159   -0.00739856
     atom    3 type  1   force =    -0.00002676   -0.00231679   -0.00713999
     atom    4 type  1   force =    -0.00096908   -0.00122561   -0.00841466
     atom    5 type  1   force =     0.00182689    0.00079219   -0.00894795
     atom    6 type  1   force =    -0.00068208    0.00172276   -0.00493516
     atom    7 type  1   force =     0.00123761   -0.01513513   -0.03011517
     atom    8 type  1   force =     0.00055786    0.01570221   -0.02220703
     atom    9 type  1   force =    -0.00028002   -0.00375132   -0.00609977
     atom   10 type  1   force =    -0.00053645   -0.00125732   -0.00218685
     atom   11 type  1   force =     0.00005241    0.00232552   -0.00655826
     atom   12 type  1   force =    -0.00055975   -0.00122432   -0.00413423
     atom   13 type  1   force =    -0.00104049    0.00086722   -0.00457781
     atom   14 type  1   force =     0.00058278   -0.00230245   -0.00713199
     atom   15 type  1   force =    -0.00031246    0.00035786   -0.01080203
     atom   16 type  1   force =     0.00024028    0.00064838    0.03198694
     atom   17 type  1   force =     0.00018846   -0.00042776    0.03049902
     atom   18 type  1   force =    -0.00032504   -0.00011371    0.02375959
     atom   19 type  1   force =    -0.00027188    0.00049330    0.03072094
     atom   20 type  1   force =     0.00008082   -0.00068355    0.03185693
     atom   21 type  1   force =    -0.00033671   -0.00142938    0.02527631
     atom   22 type  1   force =     0.00001612   -0.00691062    0.02135834
     atom   23 type  1   force =     0.00662469   -0.00427726    0.00906332
     atom   24 type  1   force =    -0.00008850    0.00881526    0.01710196
     atom   25 type  1   force =    -0.00019098    0.00510980    0.02422033
     atom   26 type  1   force =     0.00085011    0.00143613    0.03303281
     atom   27 type  1   force =     0.00122008    0.00004502    0.02283818
     atom   28 type  1   force =     0.00090629   -0.00014043    0.02364455
     atom   29 type  1   force =     0.00168729    0.00051657    0.02320660
     atom   30 type  1   force =     0.00024681   -0.00164744    0.03198048
     atom   31 type  1   force =     0.00011878    0.00083949   -0.02934623
     atom   32 type  1   force =    -0.00160443   -0.00075084   -0.02997347
     atom   33 type  1   force =    -0.00645982    0.00112085   -0.03285211
     atom   34 type  1   force =     0.00067184   -0.00102554   -0.03096071
     atom   35 type  1   force =     0.00052667   -0.00082300   -0.02865985
     atom   36 type  1   force =    -0.00146664    0.00138042   -0.02860144
     atom   37 type  1   force =     0.00093806    0.00119672   -0.03006231
     atom   38 type  1   force =     0.00194662    0.00034874   -0.02765912
     atom   39 type  1   force =    -0.00108807   -0.00200803   -0.03046262
     atom   40 type  1   force =    -0.00162213   -0.00111962   -0.02864560
     atom   41 type  1   force =     0.00048084    0.00021409   -0.03078753
     atom   42 type  1   force =     0.00048899    0.00031558   -0.03324493
     atom   43 type  1   force =    -0.00028263   -0.00213096   -0.03234804
     atom   44 type  1   force =     0.00061254    0.00294337   -0.03386352
     atom   45 type  1   force =     0.00034127   -0.00150859   -0.02982583
     atom   46 type  1   force =     0.00202184   -0.00041959    0.01138813
     atom   47 type  1   force =     0.00156445   -0.00103172    0.00778711
     atom   48 type  1   force =    -0.00722246   -0.00197077    0.00571952
     atom   49 type  1   force =    -0.01097145    0.00229642    0.00479350
     atom   50 type  1   force =     0.00075035    0.00017743    0.00798672
     atom   51 type  1   force =    -0.00224231   -0.00018700    0.01149482
     atom   52 type  1   force =    -0.00193702   -0.00128773    0.00877578
     atom   53 type  1   force =     0.01316110   -0.00348281    0.00300877
     atom   54 type  1   force =     0.02472753    0.00694770   -0.00103033
     atom   55 type  1   force =    -0.00169787    0.00086444    0.00837905
     atom   56 type  1   force =     0.00064343    0.00057620    0.01111057
     atom   57 type  1   force =     0.00048768   -0.00179717    0.00979525
     atom   58 type  1   force =     0.00070564    0.00057941    0.00936359
     atom   59 type  1   force =     0.00066784   -0.00017170    0.00982399
     atom   60 type  1   force =     0.00086633    0.00070583    0.00852376
     atom   61 type  2   force =    -0.00778504   -0.00199255    0.09081915
     atom   62 type  3   force =     0.03804991    0.01853946    0.03271619
     atom   63 type  3   force =    -0.05565243   -0.01582460   -0.02490723

     Total force =     0.144850     Total SCF correction =     0.003950
     Energy error            =      5.5E-02 Ry
     Gradient error          =      9.1E-02 Ry/Bohr

     number of scf cycles    =   6
     number of bfgs steps    =   5

     energy             old  =  -27735.9660770941 Ry
     energy             new  =  -27736.0211770679 Ry

     CASE: energy            _new < energy            _old

     new trust radius        =       0.1879863421 bohr
     new conv_thr            =       0.0000009082 Ry


ATOMIC_POSITIONS (angstrom)
Zn               1.2182850000        1.3071710000        0.7547080000    0   0   0
Zn               1.2182850000        3.9215310000        0.7547080000    0   0   0
Zn               1.2182850000        6.5358910000        0.7547080000    0   0   0
Zn               1.2182850000        9.1502510000        0.7547080000    0   0   0
Zn               1.2182850000       11.7646110000        0.7547080000    0   0   0
Zn               6.0914560000        1.3071710000        0.7547080000    0   0   0
Zn               6.0914560000        3.9215310000        0.7547080000    0   0   0
Zn               6.0914560000        6.5358910000        0.7547080000    0   0   0
Zn               6.0914560000        9.1502510000        0.7547080000    0   0   0
Zn               6.0914560000       11.7646110000        0.7547080000    0   0   0
Zn              10.9646120000        1.3071710000        0.7547080000    0   0   0
Zn              10.9646120000        3.9215310000        0.7547080000    0   0   0
Zn              10.9646120000        6.5358910000        0.7547080000    0   0   0
Zn              10.9646120000        9.1502510000        0.7547080000    0   0   0
Zn              10.9646120000       11.7646110000        0.7547080000    0   0   0
Zn               1.2182850000       -0.0000080000        3.0188090000    0   0   0
Zn               1.2182850000        2.6143520000        3.0188090000    0   0   0
Zn               1.2178624518        5.2281946498        3.1205317049
Zn               1.2182850000        7.8430720000        3.0188090000    0   0   0
Zn               1.2182850000       10.4574320000        3.0188090000    0   0   0
Zn               6.0902744446       -0.0046440048        3.1247563402
Zn               6.0910521912        2.5805346505        3.1091818735
Zn               6.0474648910        5.1865689771        2.8591067699
Zn               6.0900581396        7.8797647404        3.0949760273
Zn               6.0903493341       10.4789616432        3.1205168367
Zn              10.9646120000       -0.0000080000        3.0188090000    0   0   0
Zn              10.9690605563        2.6144049091        3.1165539855
Zn              10.9672347579        5.2287066448        3.1205888346
Zn              10.9694952100        7.8441417498        3.1182602692
Zn              10.9646120000       10.4574320000        3.0188090000    0   0   0
Zn               3.6548710000        0.0000100000        1.5093920000    0   0   0
Zn               3.6548710000        2.6143700000        1.5093920000    0   0   0
Zn               3.6548710000        5.2287300000        1.5093920000    0   0   0
Zn               3.6548710000        7.8430900000        1.5093920000    0   0   0
Zn               3.6548710000       10.4574500000        1.5093920000    0   0   0
Zn               8.5280260000        0.0000100000        1.5093920000    0   0   0
Zn               8.5280260000        2.6143700000        1.5093920000    0   0   0
Zn               8.5280260000        5.2287300000        1.5093920000    0   0   0
Zn               8.5280260000        7.8430900000        1.5093920000    0   0   0
Zn               8.5280260000       10.4574500000        1.5093920000    0   0   0
Zn              13.4011970000        0.0000100000        1.5093920000    0   0   0
Zn              13.4011970000        2.6143700000        1.5093920000    0   0   0
Zn              13.4011970000        5.2287300000        1.5093920000    0   0   0
Zn              13.4011970000        7.8430900000        1.5093920000    0   0   0
Zn              13.4011970000       10.4574500000        1.5093920000    0   0   0
Zn               3.6548710000       -1.3071690000        3.7734930000    0   0   0
Zn               3.6631199590        1.3039506315        3.8070470253
Zn               3.6249508744        3.9100448550        3.7990231856
Zn               3.6144219920        6.5470351066        3.7978824528
Zn               3.6594114164        9.1497712159        3.8080363374
Zn               8.5280260000       -1.3071690000        3.7734930000    0   0   0
Zn               8.5190488243        1.3023698240        3.8104482235
Zn               8.5805901123        3.9060202473        3.7949613116
Zn               8.6254928338        6.5662281777        3.7827146154
Zn               8.5211688018        9.1527334427        3.8087612076
Zn              13.4011970000       -1.3071690000        3.7734930000    0   0   0
Zn              13.4011970000        1.3071910000        3.7734930000    0   0   0
Zn              13.4011970000        3.9215510000        3.7734930000    0   0   0
Zn              13.4011970000        6.5359110000        3.7734930000    0   0   0
Zn              13.4011970000        9.1502710000        3.7734930000    0   0   0
O                6.3130499161        5.5248013534        4.7668664044
H                5.5382012584        4.9682052928        4.9182524219
H                7.0965085018        5.4516704299        5.2437743230



     Writing config-only to output data dir /home/ys/Research/PSID_server_room/qe/zinc_surface_water.relax/Zn_100_water/pwscf.save/ :
     XML data file
     NEW-OLD atomic charge density approx. for the potential

     negative rho (up, down):  3.066E-03 0.000E+00

     total cpu time spent up to now is    10130.2 secs

     Self-consistent Calculation

     iteration #  1     ecut=    50.00 Ry     beta= 0.70
     Davidson diagonalization with overlap
--------------------------------------------------------------------------
Primary job  terminated normally, but 1 process returned
a non-zero exit code. Per user-direction, the job has been aborted.
--------------------------------------------------------------------------
--------------------------------------------------------------------------
mpirun noticed that process rank 3 with PID 0 on node psid02 exited on signal 9 (Killed).
--------------------------------------------------------------------------
