
                                 *****************
                                 * O   R   C   A *
                                 *****************

                                            #,                                       
                                            ###                                      
                                            ####                                     
                                            #####                                    
                                            ######                                   
                                           ########,                                 
                                     ,,################,,,,,                         
                               ,,#################################,,                 
                          ,,##########################################,,             
                       ,#########################################, ''#####,          
                    ,#############################################,,   '####,        
                  ,##################################################,,,,####,       
                ,###########''''           ''''###############################       
              ,#####''   ,,,,##########,,,,          '''####'''          '####       
            ,##' ,,,,###########################,,,                        '##       
           ' ,,###''''                  '''############,,,                           
         ,,##''                                '''############,,,,        ,,,,,,###''
      ,#''                                            '''#######################'''  
     '                                                          ''''####''''         
             ,#######,   #######,   ,#######,      ##                                
            ,#'     '#,  ##    ##  ,#'     '#,    #''#        ,####,   ,####,        
            ##       ##  ##   ,#'  ##            #'  '#       #'       #'  '#        
            ##       ##  #######   ##           ,######,      #####,   #    #        
            '#,     ,#'  ##    ##  '#,     ,#' ,#      #,     #,   #   #,  ,#        
             '#######'   ##     ##  '#######'  #'      '#     '####' # '####'        



                #########################################################
                #                        -***-                          #
                #          Department of theory and spectroscopy        #
                #                                                       #
                #                      Frank Neese                      #
                #                                                       #
                #     Directorship, Architecture, Infrastructure        #
                #                    SHARK, DRIVERS                     #
                #        Core code/Algorithms in most modules           #
                #                                                       #
                #        Max Planck Institute fuer Kohlenforschung      #
                #                Kaiser Wilhelm Platz 1                 #
                #                 D-45470 Muelheim/Ruhr                 #
                #                      Germany                          #
                #                                                       #
                #                  All rights reserved                  #
                #                        -***-                          #
                #########################################################


                         Program Version 6.0.1  -  RELEASE   -


 With contributions from (in alphabetic order):
[Max-Planck-Institut fuer Kohlenforschung]                               
  Daniel Aravena         : Magnetic Suceptibility                        
  Michael Atanasov       : Ab Initio Ligand Field Theory (pilot matlab implementation)
  Alexander A. Auer      : GIAO ZORA, VPT2 properties, NMR spectrum      
  Ute Becker             : All parallelization in ORCA, NUMFREQ, NUMCALC 
  Giovanni Bistoni       : ED, misc. LED, open-shell LED, HFLD           
  Martin Brehm           : Molecular dynamics                            
  Dmytro Bykov           : pre 5.0 version of the SCF Hessian            
  Marcos Casanova-Páez   : Triplet and SCS-CIS(D). UHF-(DLPNO)-IP/EA/STEOM-CCSD. UHF-CVS-IP/STEOM-CCSD   
  Vijay G. Chilkuri      : MRCI spin determinant printing, contributions to CSF-ICE 
  Pauline Colinet        : FMM embedding                                 
  Dipayan Datta          : RHF DLPNO-CCSD density                        
  Achintya Kumar Dutta   : EOM-CC, STEOM-CC                              
  Nicolas Foglia         : Exact transition moments, OPA infrastructure, MCD improvements    
  Dmitry Ganyushin       : Spin-Orbit,Spin-Spin,Magnetic field MRCI      
  Miquel Garcia-Rates    : C-PCM and meta-GGA Hessian, CCSD/C-PCM, Gaussian charge scheme 
  Tiago L. C. Gouveia    : GS-ROHF, GS-ROCIS                             
  Yang Guo               : DLPNO-NEVPT2, F12-NEVPT2, CIM, IAO-localization        
  Andreas Hansen         : Spin unrestricted coupled pair/coupled cluster methods 
  Ingolf Harden          : AUTO-CI MPn and infrastructure                
  Benjamin Helmich-Paris : MC-RPA, TRAH-(SCF,CASSCF), AVAS, COSX integrals, SCF dyn. polar. 
  Lee Huntington         : MR-EOM, pCC                                   
  Robert Izsak           : Overlap fitted RIJCOSX, COSX-SCS-MP3, EOM     
  Riya Kayal             : Wick's Theorem for AUTO-CI, AUTO-CI UHF-CCSDT 
  Emily Kempfer          : AUTO-CI, RHF CISDT and CCSDT                  
  Christian Kollmar      : KDIIS, OOCD, Brueckner-CCSD(T), CCSD density, CASPT2, CASPT2-K, improved NEVPT2 
  Axel Koslowski         : Symmetry handling                             
  Simone Kossmann        : meta-GGA functionals, TD-DFT gradient, OOMP2, (MP2 Hessian; deprecated post 5.0) 
  Lucas Lang             : DCDCAS                                        
  Marvin Lechner         : AUTO-CI (C++ implementation), FIC-MRCC        
  Spencer Leger          : CASSCF response                               
  Dagmar Lenk            : GEPOL surface, SMD, ORCA-2-JSON               
  Dimitrios Liakos       : Extrapolation schemes; Compound Job, initial MDCI parallelization 
  Dimitrios Manganas     : Further ROCIS development; embedding schemes. LFT, Crystal Embedding 
  Dimitrios Pantazis     : SARC Basis sets                               
  Anastasios Papadopoulos: AUTO-CI, single reference methods and gradients 
  Taras Petrenko         : pre 6.0 DFT Hessian and TD-DFT gradient, (ASA, deprecated), ECA, 1-Electron XAS/XES, NRVS 
  Peter Pinski           : DLPNO-MP2, DLPNO-MP2 Gradient                 
  Christoph Reimann      : Effective Core Potentials                     
  Marius Retegan         : Local ZFS, SOC                                
  Christoph Riplinger    : Optimizer, TS searches, QM/MM, DLPNO-CCSD(T), (RO)-DLPNO pert. Triples 
  Michael Roemelt        : Original ROCIS implementation                 
  Masaaki Saitow         : Open-shell DLPNO-CCSD energy and density      
  Barbara Sandhoefer     : DKH picture change effects                    
  Kantharuban Sivalingam : CASSCF convergence/infrastructure, NEVPT2 and variants, FIC-MRCI 
  Bernardo de Souza      : ESD, SOC TD-DFT                               
  Georgi L. Stoychev     : AutoAux, RI-MP2 NMR, DLPNO-MP2 response, X2C  
  Van Anh Tran           : RI-MP2 g-tensors                              
  Willem Van den Heuvel  : Paramagnetic NMR                              
  Zikuan Wang            : NOTCH, Electric field optimization            
  Frank Wennmohs         : Technical directorship and infrastructure     
  Hang Xu                : AUTO-CI-Response properties                   
                                                                         
[FACCTs GmbH]                                                            
  Markus Bursch, Miquel Garcia-Rates, Christoph Riplinger, Bernardo de Souza, Georgi L. Stoychev 
                                                                 
  APM, Basis sets (HGBS, AHGBS, def-TZVP (Ac-Lr), def2-XVPD (La-Lu)), CI-OPT, improved COSX, DLPNO-Multilevel,           
  DOCKER, DRACO, updates on ESD, GOAT, IRC, LR-CPCM, MBIS, meta-GGA TD-DFT gradient, ML-optimized integration grids, 
  MM, NACMEs, nearIR, NEB, NEB-TS, NL-DFT gradient (VV10), 2- and 3-layer-ONIOM, interface openCOSMO-RS, QMMM,   
  Crystal-QMMM, SF, symmetry and pop. for TD-DFT, r2SCAN hybrids, SOLVATOR                                   
                                                                         
[Other institutions]                                                     
  V. Asgeirsson          : NEB                                           
  Christoph Bannwarth    : sTDA-DFT, sTD-DFT, PBEh-3c, B97-3c, D3        
  Sebastian Ehlert       : rSCAN, r2SCAN, r2SCAN-3c, D4, dhf basis sets  
  Marvin Friede          : D4 for Fr, Ra, Ac-Lr                          
  Lars Goerigk           : TD-DFT with DH, B97 family of functionals     
  Stefan Grimme          : VdW corrections, initial TS optimization, DFT functionals, gCP, sTDA/sTD-DF 
  Waldemar Hujo          : DFT-NL                                        
  H. Jonsson             : NEB                                           
  Holger Kruse           : gCP                                           
  Marcel Mueller         : wB97X-3c, vDZP basis set                      
  Hagen Neugebauer       : wr2SCAN                                       
  Tobias Risthaus        : range-separated hybrid DFT                    
  Lukas Wittmann         : regularized MP2, r2SCAN double-hybrids, wr2SCAN        
                                                                         
We gratefully acknowledge several colleagues who have allowed us to      
interface, adapt or use parts of their codes:                            
  Ed Valeev, F. Pavosevic, A. Kumar             : LibInt (2-el integral package), F12 methods 
  Garnet Chan, S. Sharma, J. Yang, R. Olivares  : DMRG                   
  Ulf Ekstrom                                   : XCFun DFT Library      
  Mihaly Kallay                                 : mrcc  (arbitrary order and MRCC methods)
  Frank Weinhold                                : gennbo (NPA and NBO analysis)           
  Simon Mueller                                 : openCOSMO-RS                            
  Christopher J. Cramer and Donald G. Truhlar   : smd solvation model                     
  S Lehtola, MJT Oliveira, MAL Marques          : LibXC Library                           
  Liviu Ungur et al                             : ANISO software                          


 Your calculation uses the libint2 library for the computation of 2-el integrals
 For citations please refer to: http://libint.valeyev.net

 Your ORCA version has been built with support for libXC version: 6.2.2
 For citations please refer to: https://libxc.gitlab.io

 This ORCA versions uses:
   CBLAS   interface :  Fast vector & matrix operations
   LAPACKE interface :  Fast linear algebra routines
   SCALAPACK package :  Parallel linear algebra routines
   Shared memory     :  Shared parallel matrices
   BLAS/LAPACK       :  OpenBLAS 0.3.27  USE64BITINT DYNAMIC_ARCH NO_AFFINITY SkylakeX SINGLE_THREADED
        Core in use  :  SkylakeX
   Copyright (c) 2011-2014, The OpenBLAS Project


Your calculation utilizes the atom-pairwise dispersion correction
with the Becke-Johnson damping scheme (D3BJ)


Warning: RI is on but no J-basis has been assigned. Assigning Def2/J (nothing to worry about!)
================================================================================

----- Orbital basis set information -----
Your calculation utilizes the basis: def2-SVP
   F. Weigend and R. Ahlrichs, Phys. Chem. Chem. Phys. 7, 3297 (2005).

----- AuxJ basis set information -----
Your calculation utilizes the auxiliary basis: def2/J
   F. Weigend, Phys. Chem. Chem. Phys. 8, 1057 (2006).

================================================================================
                                        WARNINGS
                       Please study these warnings very carefully!
================================================================================


WARNING: Geometry Optimization
  ===> : Switching off AutoStart
         For restart on a previous wavefunction, please use MOREAD

================================================================================
                                       INPUT FILE
================================================================================
NAME = aniline_2.inp
|  1> ! B3LYP def2-SVP OPT TightSCF ALLPOP KEEPDENS D3BJ
|  2> 
|  3> %pal
|  4> nprocs 4
|  5> end
|  6> 
|  7> * xyz 0 1
|  8> N         -2.40460        0.00000        0.00050
|  9> C         -0.99410       -0.00020       -0.00030
| 10> C         -0.29690        1.20790       -0.00030
| 11> C         -0.29650       -1.20800       -0.00030
| 12> C          1.09800        1.20800        0.00010
| 13> C          1.09840       -1.20780        0.00010
| 14> C          1.79570        0.00020        0.00030
| 15> H         -0.82890        2.15580       -0.00030
| 16> H         -0.82830       -2.15610       -0.00020
| 17> H          1.64110        2.14860        0.00020
| 18> H          1.64170       -2.14820        0.00020
| 19> H          2.88180        0.00040        0.00060
| 20> H         -2.91090       -0.87550       -0.00050
| 21> H         -2.91070        0.87560       -0.00060
| 22> *
| 23> 
| 24>                          ****END OF INPUT****
================================================================================

                       *****************************
                       * Geometry Optimization Run *
                       *****************************

Geometry optimization settings:
Update method            Update   .... BFGS
Choice of coordinates    CoordSys .... (2022) Redundant Internals
Initial Hessian          InHess   .... Almloef's Model
Max. no of cycles        MaxIter  .... 50

Convergence Tolerances:
Energy Change            TolE     ....  5.0000e-06 Eh
Max. Gradient            TolMAXG  ....  3.0000e-04 Eh/bohr
RMS Gradient             TolRMSG  ....  1.0000e-04 Eh/bohr
Max. Displacement        TolMAXD  ....  4.0000e-03 bohr
RMS Displacement         TolRMSD  ....  2.0000e-03 bohr
Strict Convergence                .... False

------------------------------------------------------------------------------
                        ORCA OPTIMIZATION COORDINATE SETUP
------------------------------------------------------------------------------

The optimization will be done in redundant internal coordinates (2022)
Making redundant internal coordinates   ...  (2022 redundants) done
Evaluating the initial hessian          ...  (Almloef) done
Evaluating the coordinates              ...  done
Calculating the B-matrix                .... done
Calculating the G-matrix                .... done
Diagonalizing the G-matrix              .... done
The first mode is                       ....   27
The number of degrees of freedom        ....   36

    -----------------------------------------------------------------
                    Redundant Internal Coordinates


    -----------------------------------------------------------------
         Definition                    Initial Value    Approx d2E/dq
    -----------------------------------------------------------------
      1. B(C   1,N   0)                  1.4105         0.519002   
      2. B(C   2,C   1)                  1.3948         0.613774   
      3. B(C   3,C   1)                  1.3948         0.613908   
      4. B(C   4,C   2)                  1.3949         0.613650   
      5. B(C   5,C   3)                  1.3949         0.613650   
      6. B(C   6,C   5)                  1.3948         0.613856   
      7. B(C   6,C   4)                  1.3948         0.613796   
      8. B(H   7,C   2)                  1.0870         0.364109   
      9. B(H   8,C   3)                  1.0871         0.364007   
     10. B(H   9,C   4)                  1.0861         0.365251   
     11. B(H  10,C   5)                  1.0861         0.365350   
     12. B(H  11,C   6)                  1.0861         0.365296   
     13. B(H  12,N   0)                  1.0114         0.430558   
     14. B(H  13,N   0)                  1.0113         0.430579   
     15. A(C   1,N   0,H  12)          120.0325         0.347739   
     16. A(C   1,N   0,H  13)          120.0361         0.347742   
     17. A(H  12,N   0,H  13)          119.9311         0.302777   
     18. A(N   0,C   1,C   2)          119.9813         0.416977   
     19. A(N   0,C   1,C   3)          120.0179         0.416993   
     20. A(C   2,C   1,C   3)          120.0007         0.432510   
     21. A(C   4,C   2,H   7)          119.2988         0.352955   
     22. A(C   1,C   2,H   7)          120.7076         0.352967   
     23. A(C   1,C   2,C   4)          119.9935         0.432477   
     24. A(C   5,C   3,H   8)          119.2968         0.352939   
     25. A(C   1,C   3,H   8)          120.7016         0.352964   
     26. A(C   1,C   3,C   5)          120.0016         0.432494   
     27. A(C   6,C   4,H   9)          119.9846         0.353157   
     28. A(C   2,C   4,H   9)          120.0061         0.353143   
     29. A(C   2,C   4,C   6)          120.0093         0.432480   
     30. A(C   3,C   5,H  10)          120.0082         0.353159   
     31. A(C   3,C   5,C   6)          120.0033         0.432488   
     32. A(C   6,C   5,H  10)          119.9885         0.353179   
     33. A(C   5,C   6,H  11)          120.0056         0.353170   
     34. A(C   4,C   6,H  11)          120.0028         0.353164   
     35. A(C   4,C   6,C   5)          119.9916         0.432506   
     36. D(C   2,C   1,N   0,H  12)    179.9345         0.021352   
     37. D(C   3,C   1,N   0,H  12)     -0.1030         0.021352   
     38. D(C   2,C   1,N   0,H  13)      0.1095         0.021352   
     39. D(C   3,C   1,N   0,H  13)   -179.9280         0.021352   
     40. D(C   4,C   2,C   1,C   3)     -0.0190         0.026036   
     41. D(H   7,C   2,C   1,N   0)     -0.0375         0.026036   
     42. D(H   7,C   2,C   1,C   3)    180.0000         0.026036   
     43. D(C   4,C   2,C   1,N   0)    179.9435         0.026036   
     44. D(H   8,C   3,C   1,C   2)    179.9939         0.026049   
     45. D(H   8,C   3,C   1,N   0)      0.0314         0.026049   
     46. D(C   5,C   3,C   1,C   2)      0.0190         0.026049   
     47. D(C   5,C   3,C   1,N   0)   -179.9435         0.026049   
     48. D(H   9,C   4,C   2,C   1)   -179.9939         0.026025   
     49. D(C   6,C   4,C   2,H   7)    179.9908         0.026025   
     50. D(C   6,C   4,C   2,C   1)      0.0095         0.026025   
     51. D(H   9,C   4,C   2,H   7)     -0.0126         0.026025   
     52. D(H  10,C   5,C   3,H   8)      0.0187         0.026025   
     53. D(H  10,C   5,C   3,C   1)    179.9939         0.026025   
     54. D(C   6,C   5,C   3,H   8)   -179.9847         0.026025   
     55. D(C   6,C   5,C   3,C   1)     -0.0095         0.026025   
     56. D(H  11,C   6,C   5,H  10)     -0.0027         0.026044   
     57. D(C   4,C   6,C   5,H  10)    179.9966         0.026044   
     58. D(C   4,C   6,C   5,C   3)      0.0000         0.026044   
     59. D(H  11,C   6,C   4,H   9)      0.0027         0.026038   
     60. D(H  11,C   6,C   4,C   2)    179.9993         0.026038   
     61. D(H  11,C   6,C   5,C   3)   -179.9993         0.026044   
     62. D(C   5,C   6,C   4,H   9)   -179.9966         0.026038   
     63. D(C   5,C   6,C   4,C   2)     -0.0000         0.026038   
    -----------------------------------------------------------------

Number of atoms                         .... 14
Number of degrees of freedom            .... 63


         *************************************************************
         *                GEOMETRY OPTIMIZATION CYCLE   1            *
         *************************************************************
---------------------------------
CARTESIAN COORDINATES (ANGSTROEM)
---------------------------------
  N     -2.404600    0.000000    0.000500
  C     -0.994100   -0.000200   -0.000300
  C     -0.296900    1.207900   -0.000300
  C     -0.296500   -1.208000   -0.000300
  C      1.098000    1.208000    0.000100
  C      1.098400   -1.207800    0.000100
  C      1.795700    0.000200    0.000300
  H     -0.828900    2.155800   -0.000300
  H     -0.828300   -2.156100   -0.000200
  H      1.641100    2.148600    0.000200
  H      1.641700   -2.148200    0.000200
  H      2.881800    0.000400    0.000600
  H     -2.910900   -0.875500   -0.000500
  H     -2.910700    0.875600   -0.000600

----------------------------
CARTESIAN COORDINATES (A.U.)
----------------------------
  NO LB      ZA    FRAG     MASS         X           Y           Z
   0 N     7.0000    0    14.007   -4.544035    0.000000    0.000945
   1 C     6.0000    0    12.011   -1.878577   -0.000378   -0.000567
   2 C     6.0000    0    12.011   -0.561060    2.282600   -0.000567
   3 C     6.0000    0    12.011   -0.560304   -2.282789   -0.000567
   4 C     6.0000    0    12.011    2.074919    2.282789    0.000189
   5 C     6.0000    0    12.011    2.075675   -2.282411    0.000189
   6 C     6.0000    0    12.011    3.393381    0.000378    0.000567
   7 H     1.0000    0     1.008   -1.566394    4.073872   -0.000567
   8 H     1.0000    0     1.008   -1.565260   -4.074439   -0.000378
   9 H     1.0000    0     1.008    3.101230    4.060266    0.000378
  10 H     1.0000    0     1.008    3.102363   -4.059510    0.000378
  11 H     1.0000    0     1.008    5.445813    0.000756    0.001134
  12 H     1.0000    0     1.008   -5.500804   -1.654455   -0.000945
  13 H     1.0000    0     1.008   -5.500426    1.654644   -0.001134

--------------------------------
INTERNAL COORDINATES (ANGSTROEM)
--------------------------------
 N      0   0   0     0.000000000000     0.00000000     0.00000000
 C      1   0   0     1.410500241049     0.00000000     0.00000000
 C      2   1   0     1.394845314004   119.98131013     0.00000000
 C      2   1   3     1.394785503223   120.01794985   179.96247657
 C      3   2   1     1.394900060936   119.99354579   179.94351250
 C      4   2   1     1.394900071690   120.00161459   180.05650289
 C      6   4   2     1.394808707314   120.00326675     0.00000000
 H      3   2   1     1.086985929072   120.70764932   359.96248309
 H      4   2   1     1.087062491304   120.70160962     0.03140089
 H      5   3   2     1.086133500082   120.00613328   180.00608685
 H      6   4   2     1.086060339024   120.00822396   179.99391033
 H      7   6   4     1.086100059847   120.00560245   180.00069744
 H      1   2   3     1.011355990737   120.03253116   179.93452316
 H      1   2   3     1.011342563131   120.03612766     0.10952266

---------------------------
INTERNAL COORDINATES (A.U.)
---------------------------
 N      0   0   0     0.000000000000     0.00000000     0.00000000
 C      1   0   0     2.665459167413     0.00000000     0.00000000
 C      2   1   0     2.635875642652   119.98131013     0.00000000
 C      2   1   3     2.635762616654   120.01794985   179.96247657
 C      3   2   1     2.635979099360   119.99354579   179.94351250
 C      4   2   1     2.635979119681   120.00161459   180.05650289
 C      6   4   2     2.635806466033   120.00326675     0.00000000
 H      3   2   1     2.054105717372   120.70764932   359.96248309
 H      4   2   1     2.054250399023   120.70160962     0.03140089
 H      5   3   2     2.052494860032   120.00613328   180.00608685
 H      6   4   2     2.052356605668   120.00822396   179.99391033
 H      7   6   4     2.052431667147   120.00560245   180.00069744
 H      1   2   3     1.911185846394   120.03253116   179.93452316
 H      1   2   3     1.911160471895   120.03612766     0.10952266

---------------------
BASIS SET INFORMATION
---------------------
There are 3 groups of distinct atoms

 Group   1 Type N   : 7s4p1d contracted to 3s2p1d pattern {511/31/1}
 Group   2 Type C   : 7s4p1d contracted to 3s2p1d pattern {511/31/1}
 Group   3 Type H   : 4s1p contracted to 2s1p pattern {31/1}

Atom   0N    basis set group =>   1
Atom   1C    basis set group =>   2
Atom   2C    basis set group =>   2
Atom   3C    basis set group =>   2
Atom   4C    basis set group =>   2
Atom   5C    basis set group =>   2
Atom   6C    basis set group =>   2
Atom   7H    basis set group =>   3
Atom   8H    basis set group =>   3
Atom   9H    basis set group =>   3
Atom  10H    basis set group =>   3
Atom  11H    basis set group =>   3
Atom  12H    basis set group =>   3
Atom  13H    basis set group =>   3
---------------------------------
AUXILIARY/J BASIS SET INFORMATION
---------------------------------
There are 3 groups of distinct atoms

 Group   1 Type N   : 12s5p4d2f1g contracted to 6s4p3d1f1g pattern {711111/2111/211/2/1}
 Group   2 Type C   : 12s5p4d2f1g contracted to 6s4p3d1f1g pattern {711111/2111/211/2/1}
 Group   3 Type H   : 5s2p1d contracted to 3s1p1d pattern {311/2/1}

Atom   0N    basis set group =>   1
Atom   1C    basis set group =>   2
Atom   2C    basis set group =>   2
Atom   3C    basis set group =>   2
Atom   4C    basis set group =>   2
Atom   5C    basis set group =>   2
Atom   6C    basis set group =>   2
Atom   7H    basis set group =>   3
Atom   8H    basis set group =>   3
Atom   9H    basis set group =>   3
Atom  10H    basis set group =>   3
Atom  11H    basis set group =>   3
Atom  12H    basis set group =>   3
Atom  13H    basis set group =>   3
--------------------------------------------------------------------------
By default, for Open MPI 4.0 and later, infiniband ports on a device
are not used by default.  The intent is to use UCX for these devices.
You can override this policy by setting the btl_openib_allow_ib MCA parameter
to true.

  Local host:              psid00
  Local adapter:           mlx5_0
  Local port:              1

--------------------------------------------------------------------------
--------------------------------------------------------------------------
WARNING: There was an error initializing an OpenFabrics device.

  Local host:   psid00
  Local device: mlx5_0
--------------------------------------------------------------------------


           ************************************************************
           *        Program running with 4 parallel MPI-processes     *
           *              working on a common directory               *
           ************************************************************
------------------------------------------------------------------------------
                             ORCA STARTUP CALCULATIONS
                           -- RI-GTO INTEGRALS CHOSEN --
------------------------------------------------------------------------------
------------------------------------------------------------------------------
                   ___                                                        
                  /   \      - P O W E R E D   B Y -                         
                 /     \                                                     
                 |  |  |   _    _      __       _____    __    __             
                 |  |  |  | |  | |    /  \     |  _  \  |  |  /  |          
                  \  \/   | |  | |   /    \    | | | |  |  | /  /          
                 / \  \   | |__| |  /  /\  \   | |_| |  |  |/  /          
                |  |  |   |  __  | /  /__\  \  |    /   |      \           
                |  |  |   | |  | | |   __   |  |    \   |  |\   \          
                \     /   | |  | | |  |  |  |  | |\  \  |  | \   \       
                 \___/    |_|  |_| |__|  |__|  |_| \__\ |__|  \__/        
                                                                              
                      - O R C A' S   B I G   F R I E N D -                    
                                      &                                       
                       - I N T E G R A L  F E E D E R -                       
                                                                              
 v1 FN, 2020, v2 2021, v3 2022-2024                                           
------------------------------------------------------------------------------


----------------------
SHARK INTEGRAL PACKAGE
----------------------

Number of atoms                             ...     14
Number of basis functions                   ...    133
Number of shells                            ...     63
Maximum angular momentum                    ...      2
Integral batch strategy                     ... SHARK/LIBINT Hybrid
RI-J (if used) integral strategy            ... SPLIT-RIJ (Revised 2003 algorithm where possible)
Printlevel                                  ...      1
Contraction scheme used                     ... SEGMENTED contraction
Prescreening option                         ... SCHWARTZ
   Thresh                                   ... 2.500e-11
   Tcut                                     ... 2.500e-12
   Tpresel                                  ... 2.500e-12 
Coulomb Range Separation                    ... NOT USED
Exchange Range Separation                   ... NOT USED
Multipole approximations                    ... NOT USED
Finite Nucleus Model                        ... NOT USED
CABS basis                                  ... NOT available
Auxiliary Coulomb fitting basis             ... AVAILABLE
   # of basis functions in Aux-J            ...    420
   # of shells in Aux-J                     ...    140
   Maximum angular momentum in Aux-J        ...      4
Auxiliary J/K fitting basis                 ... NOT available
Auxiliary Correlation fitting basis         ... NOT available
Auxiliary 'external' fitting basis          ... NOT available

Checking pre-screening integrals            ... done (  0.0 sec) Dimension = 63
Check shell pair data                       ... done (  0.0 sec)
Shell pair information
Shell pair cut-off parameter TPreSel        ...   2.5e-12
Total number of shell pairs                 ...      2016
Shell pairs after pre-screening             ...      1943
Total number of primitive shell pairs       ...      7252
Primitive shell pairs kept                  ...      5306
          la=0 lb=0:    606 shell pairs
          la=1 lb=0:    707 shell pairs
          la=1 lb=1:    222 shell pairs
          la=2 lb=0:    238 shell pairs
          la=2 lb=1:    142 shell pairs
          la=2 lb=2:     28 shell pairs

Calculating one electron integrals          ... done (  0.0 sec)
Calculating RI/J V-Matrix + Cholesky decomp.... done (  0.0 sec)
Calculating Nuclear repulsion               ... done (  0.0 sec) ENN=    271.101309535175 Eh

Diagonalization of the overlap matrix:
Smallest eigenvalue                        ... 2.808e-04
Time for diagonalization                   ...    0.003 sec
Threshold for overlap eigenvalues          ... 1.000e-07
Number of eigenvalues below threshold      ... 0
Time for construction of square roots      ...    0.001 sec
Total time needed                          ...    0.004 sec

-------------------
DFT GRID GENERATION
-------------------

General Integration Accuracy     IntAcc      ... 4.388
Radial Grid Type                 RadialGrid  ... OptM3 with GC (2021)
Angular Grid (max. ang.)         AngularGrid ... 4 (Lebedev-302)
Angular grid pruning method      GridPruning ... 4 (adaptive)
Weight generation scheme         WeightScheme... mBecke (2022)
Basis function cutoff            BFCut       ... 1.0000e-11
Integration weight cutoff        WCut        ... 1.0000e-14
Partially contracted basis set               ... off
Rotationally invariant grid construction     ... off
Angular grids for H and He will be reduced by one unit

Total number of grid points                  ...    64716
Total number of batches                      ...     1018
Average number of points per batch           ...       63
Average number of grid points per atom       ...     4623

--------------------
COSX GRID GENERATION
--------------------

GRIDX 1
-------
General Integration Accuracy     IntAcc      ... 3.816
Radial Grid Type                 RadialGrid  ... OptM3 with GC (2021)
Angular Grid (max. ang.)         AngularGrid ... 1 (Lebedev-50)
Angular grid pruning method      GridPruning ... 4 (adaptive)
Weight generation scheme         WeightScheme... mBecke (2022)
Basis function cutoff            BFCut       ... 1.0000e-11
Integration weight cutoff        WCut        ... 1.0000e-14
Partially contracted basis set               ... on
Rotationally invariant grid construction     ... off
Angular grids for H and He will be reduced by one unit

Total number of grid points                  ...     8304
Total number of batches                      ...       71
Average number of points per batch           ...      116
Average number of grid points per atom       ...      593
UseSFitting                                  ... on

GRIDX 2
-------
General Integration Accuracy     IntAcc      ... 4.020
Radial Grid Type                 RadialGrid  ... OptM3 with GC (2021)
Angular Grid (max. ang.)         AngularGrid ... 2 (Lebedev-110)
Angular grid pruning method      GridPruning ... 4 (adaptive)
Weight generation scheme         WeightScheme... mBecke (2022)
Basis function cutoff            BFCut       ... 1.0000e-11
Integration weight cutoff        WCut        ... 1.0000e-14
Partially contracted basis set               ... on
Rotationally invariant grid construction     ... off
Angular grids for H and He will be reduced by one unit

Total number of grid points                  ...    17974
Total number of batches                      ...      146
Average number of points per batch           ...      123
Average number of grid points per atom       ...     1284
UseSFitting                                  ... on

GRIDX 3
-------
General Integration Accuracy     IntAcc      ... 4.338
Radial Grid Type                 RadialGrid  ... OptM3 with GC (2021)
Angular Grid (max. ang.)         AngularGrid ... 3 (Lebedev-194)
Angular grid pruning method      GridPruning ... 4 (adaptive)
Weight generation scheme         WeightScheme... mBecke (2022)
Basis function cutoff            BFCut       ... 1.0000e-11
Integration weight cutoff        WCut        ... 1.0000e-14
Partially contracted basis set               ... on
Rotationally invariant grid construction     ... off
Angular grids for H and He will be reduced by one unit

Total number of grid points                  ...    39546
Total number of batches                      ...      316
Average number of points per batch           ...      125
Average number of grid points per atom       ...     2825
UseSFitting                                  ... on
Initializing property integral containers    ... done (  0.0 sec)

SHARK setup successfully completed in   0.9 seconds

Maximum memory used throughout the entire STARTUP-calculation: 18.3 MB
[psid00:40923] 3 more processes have sent help message help-mpi-btl-openib.txt / ib port not selected
[psid00:40923] Set MCA parameter "orte_base_help_aggregate" to 0 to see all help / error messages
[psid00:40923] 3 more processes have sent help message help-mpi-btl-openib.txt / error in device init
--------------------------------------------------------------------------
By default, for Open MPI 4.0 and later, infiniband ports on a device
are not used by default.  The intent is to use UCX for these devices.
You can override this policy by setting the btl_openib_allow_ib MCA parameter
to true.

  Local host:              psid00
  Local adapter:           mlx5_0
  Local port:              1

--------------------------------------------------------------------------
--------------------------------------------------------------------------
WARNING: There was an error initializing an OpenFabrics device.

  Local host:   psid00
  Local device: mlx5_0
--------------------------------------------------------------------------


           ************************************************************
           *        Program running with 4 parallel MPI-processes     *
           *              working on a common directory               *
           ************************************************************
-------------------------------------------------------------------------------
                                 ORCA GUESS
                   Start orbitals & Density for SCF / CASSCF
-------------------------------------------------------------------------------

------------
SCF SETTINGS
------------
Hamiltonian:
 Density Functional     Method          .... DFT(GTOs)
 Exchange Functional    Exchange        .... B88
   X-Alpha parameter    XAlpha          ....  0.666667
   Becke's b parameter  XBeta           ....  0.004200
 Correlation Functional Correlation     .... LYP
 LDA part of GGA corr.  LDAOpt          .... VWN-5
 Gradients option       PostSCFGGA      .... off
 Hybrid DFT is turned on
   Fraction HF Exchange ScalHFX         ....  0.200000
   Scaling of DF-GGA-X  ScalDFX         ....  0.720000
   Scaling of DF-GGA-C  ScalDFC         ....  0.810000
   Scaling of DF-LDA-C  ScalLDAC        ....  1.000000
   Perturbative correction              ....  0.000000
   NL short-range parameter             ....  4.800000
 RI-approximation to the Coulomb term is turned on
   Number of AuxJ basis functions       .... 420
   RIJ-COSX (HFX calculated with COS-X)).... on


General Settings:
 Integral files         IntName         .... aniline_2
 Hartree-Fock type      HFTyp           .... RHF
 Total Charge           Charge          ....    0
 Multiplicity           Mult            ....    1
 Number of Electrons    NEL             ....   50
 Basis Dimension        Dim             ....  133
 Nuclear Repulsion      ENuc            ....    271.1013095352 Eh

Convergence Acceleration:
 AO-DIIS                CNVDIIS         .... on
   Start iteration      DIISMaxIt       ....    12
   Startup error        DIISStart       ....  0.200000
   # of expansion vecs  DIISMaxEq       ....     5
   Bias factor          DIISBfac        ....   1.050
   Max. coefficient     DIISMaxC        ....  10.000
 MO-DIIS                CNVKDIIS        .... off
 Trust-Rad. Augm. Hess. CNVTRAH         .... auto
   Auto Start mean grad. ratio tolernc. ....  1.125000
   Auto Start start iteration           ....    50
   Auto Start num. interpolation iter.  ....    10
   Max. Number of Micro iterations      ....    24
   Max. Number of Macro iterations      .... Maxiter - #DIIS iter
   Number of Davidson start vectors     ....     2
   Converg. threshold    (grad. norm)   ....   1.000e-05
   Grad. Scal. Fac. for Micro threshold ....   0.100
   Minimum threshold for Micro iter.    ....   1.000e-02
   NR start threshold (gradient norm)   ....   1.000e-04
   Initial trust radius                 ....   0.400
   Minimum AH scaling param. (alpha)    ....   1.000
   Maximum AH scaling param. (alpha)    .... 1000.000
   Quad. conv. algorithm                .... NR
   White noise on init. David. guess    .... on
   Maximum white noise                  ....   0.010
   Pseudo random numbers                .... off
   Inactive MOs                         .... canonical
   Orbital update algorithm             .... Taylor
   Preconditioner                       .... Diag
   Full preconditioner red. dimension   ....   250
 SOSCF                  CNVSOSCF        .... on
   Start iteration      SOSCFMaxIt      ....   150
   Startup grad/error   SOSCFStart      ....  0.003300
   Hessian update       SOSCFHessUp     .... L-BFGS
 Level Shifting         CNVShift        .... on
   Level shift para.    LevelShift      ....    0.2500
   Turn off err/grad.   ShiftErr        ....    0.0010
 Zerner damping         CNVZerner       .... off
 Static damping         CNVDamp         .... on
   Fraction old density DampFac         ....    0.7000
   Max. Damping (<1)    DampMax         ....    0.9800
   Min. Damping (>=0)   DampMin         ....    0.0000
   Turn off err/grad.   DampErr         ....    0.1000

SCF Procedure:
 Maximum # iterations   MaxIter         ....   125
 SCF integral mode      SCFMode         .... Direct
   Integral package                     .... SHARK and LIBINT hybrid scheme
 Reset frequency        DirectResetFreq ....    20
 Integral Threshold     Thresh          ....  2.500e-11 Eh
 Primitive CutOff       TCut            ....  2.500e-12 Eh

Convergence Tolerance:
 Convergence Check Mode ConvCheckMode   .... Total+1el-Energy
 Convergence forced     ConvForced      .... 0
 Energy Change          TolE            ....  1.000e-08 Eh
 1-El. energy change                    ....  1.000e-05 Eh
 Orbital Gradient       TolG            ....  1.000e-05
 Orbital Rotation angle TolX            ....  1.000e-05
 DIIS Error             TolErr          ....  5.000e-07

------------------------------
INITIAL GUESS: MODEL POTENTIAL
------------------------------
Loading Hartree-Fock densities                     ... done
Calculating cut-offs                               ... done
Initializing the effective Hamiltonian             ... done
Setting up the integral package (SHARK)            ... done
Starting the Coulomb interaction                   ... done (   0.0 sec)
Making the grid                                    ... done (   0.1 sec)
Mapping shells                                     ... done
Starting the XC term evaluation                    ... done (   0.0 sec)
  promolecular density results
     # of electrons  =     49.996802144
     EX              =    -39.499400029
     EC              =     -1.658255744
     EX+EC           =    -41.157655773
Transforming the Hamiltonian                       ... done (   0.0 sec)
Diagonalizing the Hamiltonian                      ... done (   0.0 sec)
Back transforming the eigenvectors                 ... done (   0.0 sec)
Now organizing SCF variables                       ... done
                      ------------------
                      INITIAL GUESS DONE (   0.2 sec)
                      ------------------
             **** ENERGY FILE WAS UPDATED (aniline_2.en.tmp) ****
Finished Guess after   0.4 sec
Maximum memory used throughout the entire GUESS-calculation: 10.4 MB
[psid00:40940] 3 more processes have sent help message help-mpi-btl-openib.txt / ib port not selected
[psid00:40940] Set MCA parameter "orte_base_help_aggregate" to 0 to see all help / error messages
[psid00:40940] 3 more processes have sent help message help-mpi-btl-openib.txt / error in device init
--------------------------------------------------------------------------
By default, for Open MPI 4.0 and later, infiniband ports on a device
are not used by default.  The intent is to use UCX for these devices.
You can override this policy by setting the btl_openib_allow_ib MCA parameter
to true.

  Local host:              psid00
  Local adapter:           mlx5_0
  Local port:              1

--------------------------------------------------------------------------
--------------------------------------------------------------------------
WARNING: There was an error initializing an OpenFabrics device.

  Local host:   psid00
  Local device: mlx5_0
--------------------------------------------------------------------------


           ************************************************************
           *        Program running with 4 parallel MPI-processes     *
           *              working on a common directory               *
           ************************************************************

-------------------------------------------------------------------------------------------
                                      ORCA LEAN-SCF
                              memory conserving SCF solver
-------------------------------------------------------------------------------------------

----------------------------------------D-I-I-S--------------------------------------------
Iteration    Energy (Eh)           Delta-E    RMSDP     MaxDP     DIISErr   Damp  Time(sec)
-------------------------------------------------------------------------------------------
               ***  Starting incremental Fock matrix formation  ***
    1    -287.0170407442454348     0.00e+00  4.56e-03  8.05e-02  2.34e-01  0.700   0.7
    2    -287.1071534996005425    -9.01e-02  3.19e-03  4.85e-02  1.14e-01  0.700   0.4
                               ***Turning on AO-DIIS***
    3    -287.1456573334051541    -3.85e-02  1.43e-03  1.81e-02  4.10e-02  0.700   0.4
    4    -287.1678139780170227    -2.22e-02  2.60e-03  3.63e-02  2.34e-02  0.000   0.4
    5    -287.2152585286139015    -4.74e-02  3.22e-04  4.60e-03  5.12e-03  0.000   0.4
                              *** Initializing SOSCF ***
---------------------------------------S-O-S-C-F--------------------------------------
Iteration    Energy (Eh)           Delta-E    RMSDP     MaxDP     MaxGrad    Time(sec)
--------------------------------------------------------------------------------------
    6    -287.2155070644782313    -2.49e-04  1.31e-04  2.12e-03  2.10e-03     0.4
               *** Restarting incremental Fock matrix formation ***
    7    -287.2155136239754825    -6.56e-06  8.04e-05  1.14e-03  2.54e-04     0.6
    8    -287.2155133505470417     2.73e-07  2.85e-05  5.58e-04  3.26e-04     0.5
    9    -287.2155157436246213    -2.39e-06  1.19e-05  1.58e-04  5.71e-05     0.5
   10    -287.2155157285321252     1.51e-08  6.00e-06  9.17e-05  6.09e-05     0.5
[psid00:40956] 3 more processes have sent help message help-mpi-btl-openib.txt / ib port not selected
[psid00:40956] Set MCA parameter "orte_base_help_aggregate" to 0 to see all help / error messages
[psid00:40956] 3 more processes have sent help message help-mpi-btl-openib.txt / error in device init
   11    -287.2155158162699422    -8.77e-08  2.20e-06  5.74e-05  1.29e-05     0.4
   12    -287.2155158132508745     3.02e-09  1.33e-06  3.81e-05  2.11e-05     0.4
                 **** Energy Check signals convergence ****

               *****************************************************
               *                     SUCCESS                       *
               *           SCF CONVERGED AFTER  12 CYCLES          *
               *****************************************************

Recomputing exchange energy using gridx3       ... done (    0.943 sec)
Old exchange energy                            :     -8.029653410 Eh
New exchange energy                            :     -8.029651641 Eh
Exchange energy change after final integration :      0.000001769 Eh
Total energy after final integration           :   -287.215514044 Eh
             **** ENERGY FILE WAS UPDATED (aniline_2.en.tmp) ****

----------------
TOTAL SCF ENERGY
----------------

Total Energy       :       -287.21551404390266 Eh           -7815.53147 eV

Components:
Nuclear Repulsion  :        271.10130953517483 Eh            7377.04167 eV
Electronic Energy  :       -558.31682534842571 Eh          -15192.57319 eV
One Electron Energy:       -923.77840014111882 Eh          -25137.28822 eV
Two Electron Energy:        365.46157479269317 Eh            9944.71503 eV

Virial components:
Potential Energy   :       -571.37931313429101 Eh          -15548.02156 eV
Kinetic Energy     :        284.16379909038835 Eh            7732.49009 eV
Virial Ratio       :          2.01073928122894

DFT components:
N(Alpha)           :       25.000015648679 electrons
N(Beta)            :       25.000015648679 electrons
N(Total)           :       50.000031297358 electrons
E(X)               :      -31.879691344372 Eh       
E(C)               :       -1.963812544423 Eh       
E(XC)              :      -33.843503888794 Eh       

---------------
SCF CONVERGENCE
---------------

  Last Energy change         ...   -3.0191e-09  Tolerance :   1.0000e-08
  Last MAX-Density change    ...    3.8135e-05  Tolerance :   1.0000e-07
  Last RMS-Density change    ...    1.3341e-06  Tolerance :   5.0000e-09
  Last DIIS Error            ...    2.1045e-03  Tolerance :   5.0000e-07
  Last Orbital Gradient      ...    2.1095e-05  Tolerance :   1.0000e-05
  Last Orbital Rotation      ...    3.1817e-05  Tolerance :   1.0000e-05


----------------
ORBITAL ENERGIES
----------------

  NO   OCC          E(Eh)            E(eV) 
   0   2.0000     -14.325373      -389.8132 
   1   2.0000     -10.219722      -278.0928 
   2   2.0000     -10.177277      -276.9378 
   3   2.0000     -10.177263      -276.9374 
   4   2.0000     -10.171359      -276.7768 
   5   2.0000     -10.171352      -276.7766 
   6   2.0000     -10.165371      -276.6138 
   7   2.0000      -0.892946       -24.2983 
   8   2.0000      -0.818398       -22.2697 
   9   2.0000      -0.727524       -19.7969 
  10   2.0000      -0.708911       -19.2905 
  11   2.0000      -0.599830       -16.3222 
  12   2.0000      -0.584353       -15.9010 
  13   2.0000      -0.516809       -14.0631 
  14   2.0000      -0.507007       -13.7964 
  15   2.0000      -0.463756       -12.6194 
  16   2.0000      -0.426188       -11.5972 
  17   2.0000      -0.423485       -11.5236 
  18   2.0000      -0.410391       -11.1673 
  19   2.0000      -0.375567       -10.2197 
  20   2.0000      -0.346812        -9.4372 
  21   2.0000      -0.337461        -9.1828 
  22   2.0000      -0.299700        -8.1552 
  23   2.0000      -0.243996        -6.6395 
  24   2.0000      -0.194424        -5.2905 
  25   0.0000       0.003261         0.0887 
  26   0.0000       0.024821         0.6754 
  27   0.0000       0.057375         1.5612 
  28   0.0000       0.076787         2.0895 
  29   0.0000       0.091289         2.4841 
  30   0.0000       0.125845         3.4244 
  31   0.0000       0.128738         3.5031 
  32   0.0000       0.165661         4.5079 
  33   0.0000       0.165952         4.5158 
  34   0.0000       0.171414         4.6644 
  35   0.0000       0.266281         7.2459 
*Only the first 10 virtual orbitals were printed.

                    ********************************
                    * MULLIKEN POPULATION ANALYSIS *
                    ********************************

-----------------------
MULLIKEN ATOMIC CHARGES
-----------------------
   0 N :   -0.121349
   1 C :    0.122722
   2 C :   -0.033504
   3 C :   -0.033533
   4 C :    0.018348
   5 C :    0.018384
   6 C :    0.010267
   7 H :   -0.052733
   8 H :   -0.052710
   9 H :   -0.027461
  10 H :   -0.027483
  11 H :   -0.033093
  12 H :    0.106070
  13 H :    0.106076
Sum of atomic charges:    0.0000000

--------------------------------
MULLIKEN REDUCED ORBITAL CHARGES
--------------------------------
  0 N s       :     3.295219  s :     3.295219
      pz      :     1.788640  p :     3.812200
      px      :     1.048211
      py      :     0.975350
      dz2     :     0.001761  d :     0.013930
      dxz     :     0.002207
      dyz     :     0.000029
      dx2y2   :     0.004046
      dxy     :     0.005886

  1 C s       :     2.963983  s :     2.963983
      pz      :     0.947924  p :     2.852672
      px      :     0.886961
      py      :     1.017788
      dz2     :     0.004297  d :     0.060623
      dxz     :     0.015363
      dyz     :     0.006999
      dx2y2   :     0.019274
      dxy     :     0.014690

  2 C s       :     3.222138  s :     3.222138
      pz      :     1.072328  p :     2.778415
      px      :     0.881414
      py      :     0.824673
      dz2     :     0.002641  d :     0.032951
      dxz     :     0.005111
      dyz     :     0.003114
      dx2y2   :     0.009594
      dxy     :     0.012491

  3 C s       :     3.222166  s :     3.222166
      pz      :     1.072375  p :     2.778414
      px      :     0.881355
      py      :     0.824684
      dz2     :     0.002641  d :     0.032953
      dxz     :     0.005112
      dyz     :     0.003114
      dx2y2   :     0.009593
      dxy     :     0.012493

  4 C s       :     3.160824  s :     3.160824
      pz      :     0.976129  p :     2.784531
      px      :     0.936053
      py      :     0.872350
      dz2     :     0.002541  d :     0.036296
      dxz     :     0.006593
      dyz     :     0.003543
      dx2y2   :     0.011308
      dxy     :     0.012311

  5 C s       :     3.160845  s :     3.160845
      pz      :     0.976134  p :     2.784473
      px      :     0.936006
      py      :     0.872333
      dz2     :     0.002542  d :     0.036298
      dxz     :     0.006592
      dyz     :     0.003545
      dx2y2   :     0.011308
      dxy     :     0.012312

  6 C s       :     3.144421  s :     3.144421
      pz      :     1.043307  p :     2.810742
      px      :     0.814317
      py      :     0.953118
      dz2     :     0.002534  d :     0.034570
      dxz     :     0.002301
      dyz     :     0.006060
      dx2y2   :     0.012992
      dxy     :     0.010683

  7 H s       :     1.029455  s :     1.029455
      pz      :     0.005443  p :     0.023278
      px      :     0.005880
      py      :     0.011954

  8 H s       :     1.029436  s :     1.029436
      pz      :     0.005442  p :     0.023275
      px      :     0.005877
      py      :     0.011956

  9 H s       :     1.004420  s :     1.004420
      pz      :     0.004776  p :     0.023041
      px      :     0.006359
      py      :     0.011906

 10 H s       :     1.004439  s :     1.004439
      pz      :     0.004777  p :     0.023044
      px      :     0.006362
      py      :     0.011905

 11 H s       :     1.009874  s :     1.009874
      pz      :     0.005293  p :     0.023220
      px      :     0.014577
      py      :     0.003350

 12 H s       :     0.849169  s :     0.849169
      pz      :     0.013873  p :     0.044762
      px      :     0.011116
      py      :     0.019772

 13 H s       :     0.849161  s :     0.849161
      pz      :     0.013874  p :     0.044764
      px      :     0.011113
      py      :     0.019776



                     *******************************
                     * LOEWDIN POPULATION ANALYSIS *
                     *******************************

----------------------
LOEWDIN ATOMIC CHARGES
----------------------
   0 N :   -0.045676
   1 C :    0.036621
   2 C :   -0.069489
   3 C :   -0.069528
   4 C :   -0.015058
   5 C :   -0.015043
   6 C :   -0.063810
   7 H :    0.018264
   8 H :    0.018279
   9 H :    0.023703
  10 H :    0.023698
  11 H :    0.019541
  12 H :    0.069244
  13 H :    0.069253

-------------------------------
LOEWDIN REDUCED ORBITAL CHARGES
-------------------------------
  0 N s       :     3.028496  s :     3.028496
      pz      :     1.713210  p :     3.979205
      px      :     1.130383
      py      :     1.135612
      dz2     :     0.002710  d :     0.037975
      dxz     :     0.004196
      dyz     :     0.000032
      dx2y2   :     0.013093
      dxy     :     0.017943

  1 C s       :     2.835597  s :     2.835597
      pz      :     0.940919  p :     2.983126
      px      :     0.942729
      py      :     1.099478
      dz2     :     0.009275  d :     0.144656
      dxz     :     0.031792
      dyz     :     0.014623
      dx2y2   :     0.050851
      dxy     :     0.038115

  2 C s       :     2.854438  s :     2.854438
      pz      :     1.048329  p :     3.127058
      px      :     1.054626
      py      :     1.024102
      dz2     :     0.006403  d :     0.087993
      dxz     :     0.010668
      dyz     :     0.005836
      dx2y2   :     0.029477
      dxy     :     0.035609

  3 C s       :     2.854433  s :     2.854433
      pz      :     1.048382  p :     3.127098
      px      :     1.054615
      py      :     1.024101
      dz2     :     0.006403  d :     0.087997
      dxz     :     0.010671
      dyz     :     0.005835
      dx2y2   :     0.029475
      dxy     :     0.035612

  4 C s       :     2.858642  s :     2.858642
      pz      :     0.958099  p :     3.063253
      px      :     1.058550
      py      :     1.046605
      dz2     :     0.006124  d :     0.093162
      dxz     :     0.014107
      dyz     :     0.006906
      dx2y2   :     0.032000
      dxy     :     0.034025

  5 C s       :     2.858615  s :     2.858615
      pz      :     0.958095  p :     3.063258
      px      :     1.058532
      py      :     1.046631
      dz2     :     0.006124  d :     0.093169
      dxz     :     0.014105
      dyz     :     0.006910
      dx2y2   :     0.032001
      dxy     :     0.034029

  6 C s       :     2.854990  s :     2.854990
      pz      :     1.023999  p :     3.118370
      px      :     1.032261
      py      :     1.062110
      dz2     :     0.006265  d :     0.090450
      dxz     :     0.003913
      dyz     :     0.013136
      dx2y2   :     0.036234
      dxy     :     0.030903

  7 H s       :     0.912889  s :     0.912889
      pz      :     0.016796  p :     0.068848
      px      :     0.017795
      py      :     0.034257

  8 H s       :     0.912887  s :     0.912887
      pz      :     0.016792  p :     0.068834
      px      :     0.017785
      py      :     0.034257

  9 H s       :     0.909314  s :     0.909314
      pz      :     0.014227  p :     0.066983
      px      :     0.018781
      py      :     0.033976

 10 H s       :     0.909306  s :     0.909306
      pz      :     0.014231  p :     0.066996
      px      :     0.018791
      py      :     0.033974

 11 H s       :     0.912144  s :     0.912144
      pz      :     0.016273  p :     0.068315
      px      :     0.040865
      py      :     0.011177

 12 H s       :     0.806806  s :     0.806806
      pz      :     0.043956  p :     0.123950
      px      :     0.027676
      py      :     0.052318

 13 H s       :     0.806793  s :     0.806793
      pz      :     0.043958  p :     0.123954
      px      :     0.027666
      py      :     0.052330



                      *****************************
                      * MAYER POPULATION ANALYSIS *
                      *****************************

  NA   - Mulliken gross atomic population
  ZA   - Total nuclear charge
  QA   - Mulliken gross atomic charge
  VA   - Mayer's total valence
  BVA  - Mayer's bonded valence
  FA   - Mayer's free valence

  ATOM       NA         ZA         QA         VA         BVA        FA
  0 N      7.1213     7.0000    -0.1213     3.1652     3.1652    -0.0000
  1 C      5.8773     6.0000     0.1227     4.0383     4.0383    -0.0000
  2 C      6.0335     6.0000    -0.0335     3.7866     3.7866    -0.0000
  3 C      6.0335     6.0000    -0.0335     3.7866     3.7866     0.0000
  4 C      5.9817     6.0000     0.0183     3.8686     3.8686     0.0000
  5 C      5.9816     6.0000     0.0184     3.8686     3.8686     0.0000
  6 C      5.9897     6.0000     0.0103     3.8219     3.8219     0.0000
  7 H      1.0527     1.0000    -0.0527     0.9842     0.9842    -0.0000
  8 H      1.0527     1.0000    -0.0527     0.9842     0.9842    -0.0000
  9 H      1.0275     1.0000    -0.0275     0.9758     0.9758    -0.0000
 10 H      1.0275     1.0000    -0.0275     0.9758     0.9758    -0.0000
 11 H      1.0331     1.0000    -0.0331     0.9765     0.9765    -0.0000
 12 H      0.8939     1.0000     0.1061     1.0025     1.0025     0.0000
 13 H      0.8939     1.0000     0.1061     1.0025     1.0025    -0.0000

  Mayer bond orders larger than 0.100000
B(  0-N ,  1-C ) :   1.2083 B(  0-N , 12-H ) :   0.9510 B(  0-N , 13-H ) :   0.9510 
B(  1-C ,  2-C ) :   1.3290 B(  1-C ,  3-C ) :   1.3291 B(  2-C ,  4-C ) :   1.3947 
B(  2-C ,  7-H ) :   0.9894 B(  3-C ,  5-C ) :   1.3945 B(  3-C ,  8-H ) :   0.9894 
B(  4-C ,  6-C ) :   1.3788 B(  4-C ,  9-H ) :   0.9814 B(  5-C ,  6-C ) :   1.3789 
B(  5-C , 10-H ) :   0.9814 B(  6-C , 11-H ) :   0.9869 

Environment variable NBOEXE for nbo6.exe or nbo5.exe not set! Skipping NBO-Analysis

-------
TIMINGS
-------

Total SCF time: 0 days 0 hours 0 min 6 sec 

Total time                  ....       6.844 sec
Sum of individual times     ....       6.818 sec  ( 99.6%)

SCF preparation             ....       0.252 sec  (  3.7%)
Fock matrix formation       ....       6.429 sec  ( 93.9%)
  Startup                   ....       0.006 sec  (  0.1% of F)
  Split-RI-J                ....       0.520 sec  (  8.1% of F)
  Chain of spheres X        ....       4.474 sec  ( 69.6% of F)
  XC integration            ....       1.408 sec  ( 21.9% of F)
    XC Preparation          ....       0.000 sec  (  0.0% of XC)
    Basis function eval.    ....       0.576 sec  ( 40.9% of XC)
    Density eval.           ....       0.202 sec  ( 14.4% of XC)
    XC-Functional eval.     ....       0.159 sec  ( 11.3% of XC)
    XC-Potential eval.      ....       0.355 sec  ( 25.2% of XC)
Diagonalization             ....       0.000 sec  (  0.0%)
Density matrix formation    ....       0.022 sec  (  0.3%)
Total Energy calculation    ....       0.009 sec  (  0.1%)
Population analysis         ....       0.015 sec  (  0.2%)
Orbital Transformation      ....       0.014 sec  (  0.2%)
Orbital Orthonormalization  ....       0.000 sec  (  0.0%)
DIIS solution               ....       0.056 sec  (  0.8%)
SOSCF solution              ....       0.022 sec  (  0.3%)
Finished LeanSCF after   6.9 sec

Maximum memory used throughout the entire LEANSCF-calculation: 14.0 MB


-------------------------------------------------------------------------------
                          DFT DISPERSION CORRECTION                            
                                                                               
                              DFTD3 V3.1  Rev 1                                
                          USING Becke-Johnson damping                          
-------------------------------------------------------------------------------
The B3LYP functional is recognized
Active option DFTDOPT                   ...         4   

molecular C6(AA) [au] = 2150.791188 


            DFT-D V3
 parameters
 s6 scaling factor         :     1.0000 
 a1 scaling factor         :     0.3981 
 s8 scaling factor         :     1.9889 
 a2 scaling factor         :     4.4211 
 ad hoc parameters k1-k3   :    16.0000     1.3333    -4.0000 

 Edisp/kcal,au: -14.290237186724  -0.022772940096 
 E6   /kcal   :  -6.653779220 
 E8   /kcal   :  -7.636457967 
 % E8         :  53.438287044 

-------------------------   ----------------
Dispersion correction           -0.022772940
-------------------------   ----------------


-------------------------   --------------------
FINAL SINGLE POINT ENERGY      -287.238286983998
-------------------------   --------------------

--------------------------------------------------------------------------
By default, for Open MPI 4.0 and later, infiniband ports on a device
are not used by default.  The intent is to use UCX for these devices.
You can override this policy by setting the btl_openib_allow_ib MCA parameter
to true.

  Local host:              psid00
  Local adapter:           mlx5_0
  Local port:              1

--------------------------------------------------------------------------
--------------------------------------------------------------------------
WARNING: There was an error initializing an OpenFabrics device.

  Local host:   psid00
  Local device: mlx5_0
--------------------------------------------------------------------------


           ************************************************************
           *        Program running with 4 parallel MPI-processes     *
           *              working on a common directory               *
           ************************************************************
------------------------------------------------------------------------------
                         ORCA SCF GRADIENT CALCULATION
------------------------------------------------------------------------------

Nuc. rep. gradient        (SHARK) ... done (  0.0 sec)
HCore & Overlap gradient  (SHARK) ... done (  0.0 sec)
Split-RIJ-J gradient      (SHARK) ... done (  0.2 sec)
COSX-gradient                     ... done (  3.8 sec)
XC gradient                       ... done (  0.7 sec)
Dispersion correction             ... done (  0.0 sec)

-------------------
DISPERSION GRADIENT
-------------------

   1   N   :   -0.000591663    0.000000021    0.000000124
   2   C   :   -0.000416263   -0.000000075   -0.000000091
   3   C   :   -0.000054766    0.000486913   -0.000000090
   4   C   :   -0.000054531   -0.000486992   -0.000000087
   5   C   :    0.000350322    0.000433094    0.000000028
   6   C   :    0.000350386   -0.000433039    0.000000028
   7   C   :    0.000522501    0.000000050    0.000000100
   8   H   :   -0.000095085    0.000331951   -0.000000049
   9   H   :   -0.000094967   -0.000332031   -0.000000034
  10   H   :    0.000167638    0.000276259    0.000000029
  11   H   :    0.000167701   -0.000276206    0.000000028
  12   H   :    0.000317686    0.000000050    0.000000086
  13   H   :   -0.000284512   -0.000077357   -0.000000031
  14   H   :   -0.000284446    0.000077362   -0.000000042

Difference to translation invariance:
           :    0.0000000000    0.0000000000    0.0000000000

Difference to rotation invariance:
           :   -0.0000000000    0.0000000000    0.0000000000

Norm of the Dispersion gradient    ...    0.0016184056
RMS gradient                       ...    0.0002497254
MAX gradient                       ...    0.0005916634

------------------
CARTESIAN GRADIENT
------------------

   1   N   :   -0.023090251    0.000075229    0.000001690
   2   C   :    0.042368696   -0.000102306   -0.000047412
   3   C   :   -0.011984594   -0.006676836   -0.000008352
   4   C   :   -0.011881339    0.006783592   -0.000016023
   5   C   :    0.004969238    0.005284327    0.000018795
   6   C   :    0.004994593   -0.005348057    0.000018958
   7   C   :   -0.005059583   -0.000008942   -0.000001397
   8   H   :    0.004022021   -0.002822350    0.000001325
   9   H   :    0.003994044    0.002782761    0.000005591
  10   H   :   -0.001800533   -0.004421480   -0.000001487
  11   H   :   -0.001824487    0.004463676   -0.000002097
  12   H   :   -0.004678475    0.000000261   -0.000002162
  13   H   :   -0.000011588   -0.003760731    0.000017050
  14   H   :   -0.000017742    0.003750857    0.000015522

Difference to translation invariance:
           :    0.0000000000   -0.0000000000    0.0000000000

Difference to rotation invariance:
           :   -0.0000001816    0.0000004871    0.0000006850

Norm of the Cartesian gradient     ...    0.0545841395
RMS gradient                       ...    0.0084225156
MAX gradient                       ...    0.0423686963

-------
TIMINGS
-------

Total SCF gradient time     ....        4.727 sec

Densities                   ....       0.000 sec  (  0.0%)
One electron gradient       ....       0.026 sec  (  0.5%)
RI-J Coulomb gradient       ....       0.210 sec  (  4.4%)
COSX gradient               ....       3.785 sec  ( 80.1%)
XC gradient                 ....       0.658 sec  ( 13.9%)

Maximum memory used throughout the entire SCFGRAD-calculation: 28.4 MB
[psid00:40995] 3 more processes have sent help message help-mpi-btl-openib.txt / ib port not selected
[psid00:40995] Set MCA parameter "orte_base_help_aggregate" to 0 to see all help / error messages
[psid00:40995] 3 more processes have sent help message help-mpi-btl-openib.txt / error in device init
------------------------------------------------------------------------------
                         ORCA GEOMETRY RELAXATION STEP
------------------------------------------------------------------------------

Reading the OPT-File                    .... done
Getting information on internals        .... done
Copying old internal coords+grads       .... done
Making the new internal coordinates     .... (2022 redundants) done
Validating the new internal coordinates .... (2022 redundants) done
Calculating the B-matrix                .... done
Calculating the G,G- and P matrices     .... done
Transforming gradient to internals      .... done
Projecting the internal gradient        .... done
Number of atoms                         ....  14
Number of internal coordinates          ....  63
Current Energy                          ....  -287.238286984 Eh
Current gradient norm                   ....     0.054584140 Eh/bohr
Maximum allowed component of the step   ....  0.300
Current trust radius                    ....  0.300
Evaluating the initial hessian          ....  (Almloef) done
Projecting the Hessian                  .... done
Forming the augmented Hessian           .... done
Diagonalizing the augmented Hessian     .... done
Last element of RFO vector              ....  0.997794469
Lowest eigenvalues of augmented Hessian:
 -0.002141524  0.021352336  0.021353096  0.024598936  0.026029841
Length of the computed step             ....  0.066525923
The final length of the internal step   ....  0.066525923
Converting the step to Cartesian space:
 Initial RMS(Int)=    0.0083814785
Transforming coordinates:
 Iter   0:  RMS(Cart)=    0.0094064023 RMS(Int)=    1.5832096998
done
Storing new coordinates                 .... done

                                .--------------------.
          ----------------------|Geometry convergence|-------------------------
          Item                value                   Tolerance       Converged
          ---------------------------------------------------------------------
          RMS gradient        0.0041220154            0.0001000000      NO
          MAX gradient        0.0231196057            0.0003000000      NO
          RMS step            0.0083814785            0.0020000000      NO
          MAX step            0.0443632617            0.0040000000      NO
          ........................................................
          Max(Bonds)      0.0235      Max(Angles)    0.72
          Max(Dihed)        0.05      Max(Improp)    0.00
          ---------------------------------------------------------------------

The optimization has not yet converged - more geometry cycles are needed


    ---------------------------------------------------------------------------
                         Redundant Internal Coordinates
                            (Angstroem and degrees)

        Definition                    Value    dE/dq     Step     New-Value
    ----------------------------------------------------------------------------
     1. B(C   1,N   0)                1.4105  0.023120 -0.0235    1.3870   
     2. B(C   2,C   1)                1.3948 -0.011027  0.0096    1.4045   
     3. B(C   3,C   1)                1.3948 -0.011031  0.0096    1.4044   
     4. B(C   4,C   2)                1.3949 -0.001692  0.0015    1.3964   
     5. B(C   5,C   3)                1.3949 -0.001707  0.0015    1.3964   
     6. B(C   6,C   5)                1.3948 -0.003725  0.0030    1.3978   
     7. B(C   6,C   4)                1.3948 -0.003710  0.0030    1.3979   
     8. B(H   7,C   2)                1.0870 -0.004430  0.0064    1.0934   
     9. B(H   8,C   3)                1.0871 -0.004381  0.0063    1.0934   
    10. B(H   9,C   4)                1.0861 -0.004729  0.0068    1.0929   
    11. B(H  10,C   5)                1.0861 -0.004778  0.0069    1.0929   
    12. B(H  11,C   6)                1.0861 -0.004678  0.0067    1.0928   
    13. B(H  12,N   0)                1.0114  0.003261 -0.0040    1.0074   
    14. B(H  13,N   0)                1.0113  0.003256 -0.0040    1.0074   
    15. A(C   1,N   0,H  12)          120.03 -0.001200    0.21    120.25   
    16. A(C   1,N   0,H  13)          120.04 -0.001179    0.21    120.25   
    17. A(H  12,N   0,H  13)          119.93  0.002379   -0.43    119.50   
    18. A(N   0,C   1,C   2)          119.98 -0.002954    0.37    120.35   
    19. A(N   0,C   1,C   3)          120.02 -0.002810    0.35    120.37   
    20. A(C   2,C   1,C   3)          120.00  0.005764   -0.72    119.28   
    21. A(C   4,C   2,H   7)          119.30 -0.001615    0.26    119.56   
    22. A(C   1,C   2,H   7)          120.71  0.002752   -0.44    120.26   
    23. A(C   1,C   2,C   4)          119.99 -0.001138    0.18    120.17   
    24. A(C   5,C   3,H   8)          119.30 -0.001627    0.26    119.56   
    25. A(C   1,C   3,H   8)          120.70  0.002732   -0.44    120.26   
    26. A(C   1,C   3,C   5)          120.00 -0.001105    0.18    120.18   
    27. A(C   6,C   4,H   9)          119.98  0.001005   -0.11    119.87   
    28. A(C   2,C   4,H   9)          120.01  0.002342   -0.33    119.68   
    29. A(C   2,C   4,C   6)          120.01 -0.003348    0.44    120.45   
    30. A(C   3,C   5,H  10)          120.01  0.002355   -0.33    119.68   
    31. A(C   3,C   5,C   6)          120.00 -0.003369    0.44    120.44   
    32. A(C   6,C   5,H  10)          119.99  0.001014   -0.11    119.88   
    33. A(C   5,C   6,H  11)          120.01 -0.001597    0.25    120.26   
    34. A(C   4,C   6,H  11)          120.00 -0.001599    0.26    120.26   
    35. A(C   4,C   6,C   5)          119.99  0.003196   -0.51    119.48   
    36. D(C   2,C   1,N   0,H  12)    179.93  0.000022   -0.05    179.88   
    37. D(C   3,C   1,N   0,H  12)     -0.10  0.000009   -0.02     -0.13   
    38. D(C   2,C   1,N   0,H  13)      0.11 -0.000009    0.02      0.13   
    39. D(C   3,C   1,N   0,H  13)   -179.93 -0.000021    0.05   -179.88   
    40. D(C   4,C   2,C   1,C   3)     -0.02 -0.000005    0.01     -0.01   
    41. D(H   7,C   2,C   1,N   0)     -0.04 -0.000012    0.02     -0.01   
    42. D(H   7,C   2,C   1,C   3)    180.00  0.000004   -0.01    179.99   
    43. D(C   4,C   2,C   1,N   0)    179.94 -0.000020    0.04    179.98   
    44. D(H   8,C   3,C   1,C   2)    179.99 -0.000006    0.01    180.01   
    45. D(H   8,C   3,C   1,N   0)      0.03  0.000010   -0.02      0.01   
    46. D(C   5,C   3,C   1,C   2)      0.02  0.000005   -0.01      0.01   
    47. D(C   5,C   3,C   1,N   0)   -179.94  0.000020   -0.04   -179.98   
    48. D(H   9,C   4,C   2,C   1)   -179.99  0.000002   -0.00   -180.00   
    49. D(C   6,C   4,C   2,H   7)    179.99 -0.000005    0.01    180.00   
    50. D(C   6,C   4,C   2,C   1)      0.01  0.000002   -0.01      0.00   
    51. D(H   9,C   4,C   2,H   7)     -0.01 -0.000005    0.01     -0.00   
    52. D(H  10,C   5,C   3,H   8)      0.02  0.000007   -0.01      0.00   
    53. D(H  10,C   5,C   3,C   1)    179.99 -0.000002    0.01    180.00   
    54. D(C   6,C   5,C   3,H   8)   -179.98  0.000007   -0.01   -180.00   
    55. D(C   6,C   5,C   3,C   1)     -0.01 -0.000002    0.01     -0.00   
    56. D(H  11,C   6,C   5,H  10)     -0.00  0.000000   -0.00     -0.00   
    57. D(C   4,C   6,C   5,H  10)    180.00  0.000001   -0.00    179.99   
    58. D(C   4,C   6,C   5,C   3)      0.00  0.000002   -0.00     -0.00   
    59. D(H  11,C   6,C   4,H   9)      0.00 -0.000000    0.00      0.00   
    60. D(H  11,C   6,C   4,C   2)    180.00 -0.000001    0.00    180.00   
    61. D(H  11,C   6,C   5,C   3)   -180.00  0.000001   -0.00   -180.00   
    62. D(C   5,C   6,C   4,H   9)   -180.00 -0.000001    0.00   -179.99   
    63. D(C   5,C   6,C   4,C   2)     -0.00 -0.000002    0.00      0.00   
    ----------------------------------------------------------------------------

Geometry step timings:
Preparation and reading OPT file:      0.001 s (15.566 %)
Internal coordinates            :      0.000 s ( 1.558 %)
B/P matrices and projection     :      0.001 s (23.469 %)
Hessian update/contruction      :      0.000 s ( 7.792 %)
Making the step                 :      0.001 s (18.089 %)
Converting the step to Cartesian:      0.000 s ( 3.878 %)
Storing new data                :      0.000 s ( 1.596 %)
Checking convergence            :      0.000 s ( 0.223 %)
Final printing                  :      0.001 s (27.458 %)
Total time                      :      0.005 s
--------------------------------------------------------------------------
By default, for Open MPI 4.0 and later, infiniband ports on a device
are not used by default.  The intent is to use UCX for these devices.
You can override this policy by setting the btl_openib_allow_ib MCA parameter
to true.

  Local host:              psid00
  Local adapter:           mlx5_0
  Local port:              1

--------------------------------------------------------------------------
--------------------------------------------------------------------------
WARNING: There was an error initializing an OpenFabrics device.

  Local host:   psid00
  Local device: mlx5_0
--------------------------------------------------------------------------
[psid00:41082] 3 more processes have sent help message help-mpi-btl-openib.txt / ib port not selected
[psid00:41082] Set MCA parameter "orte_base_help_aggregate" to 0 to see all help / error messages
[psid00:41082] 3 more processes have sent help message help-mpi-btl-openib.txt / error in device init

Time for energy+gradient        :     13.841 s
Time for complete geometry iter :     14.152 s

         *************************************************************
         *                GEOMETRY OPTIMIZATION CYCLE   2            *
         *************************************************************
---------------------------------
CARTESIAN COORDINATES (ANGSTROEM)
---------------------------------
  N     -2.396481   -0.000093    0.000582
  C     -1.009457   -0.000119    0.000235
  C     -0.299732    1.211856    0.000115
  C     -0.299450   -1.211861    0.000133
  C      1.096615    1.207519    0.000103
  C      1.096910   -1.207256    0.000123
  C      1.801167    0.000209    0.000140
  H     -0.836187    2.164594    0.000074
  H     -0.835718   -2.164713    0.000135
  H      1.640750    2.155383    0.000029
  H      1.641227   -2.155010    0.000056
  H      2.894005    0.000363    0.000140
  H     -2.903941   -0.870306   -0.001144
  H     -2.903907    0.870132   -0.001222

----------------------------
CARTESIAN COORDINATES (A.U.)
----------------------------
  NO LB      ZA    FRAG     MASS         X           Y           Z
   0 N     7.0000    0    14.007   -4.528693   -0.000175    0.001100
   1 C     6.0000    0    12.011   -1.907597   -0.000224    0.000445
   2 C     6.0000    0    12.011   -0.566411    2.290077    0.000218
   3 C     6.0000    0    12.011   -0.565879   -2.290085    0.000252
   4 C     6.0000    0    12.011    2.072302    2.281880    0.000195
   5 C     6.0000    0    12.011    2.072860   -2.281383    0.000233
   6 C     6.0000    0    12.011    3.403712    0.000396    0.000264
   7 H     1.0000    0     1.008   -1.580164    4.090490    0.000140
   8 H     1.0000    0     1.008   -1.579279   -4.090714    0.000256
   9 H     1.0000    0     1.008    3.100568    4.073083    0.000056
  10 H     1.0000    0     1.008    3.101470   -4.072378    0.000106
  11 H     1.0000    0     1.008    5.468876    0.000685    0.000264
  12 H     1.0000    0     1.008   -5.487653   -1.644639   -0.002162
  13 H     1.0000    0     1.008   -5.487590    1.644311   -0.002310

--------------------------------
INTERNAL COORDINATES (ANGSTROEM)
--------------------------------
 N      0   0   0     0.000000000000     0.00000000     0.00000000
 C      1   0   0     1.387024214086     0.00000000     0.00000000
 C      2   1   0     1.404490279443   120.35190828     0.00000000
 C      2   1   3     1.404431892581   120.36877136   179.99370990
 C      3   2   1     1.396353505764   120.17499357   179.98399345
 C      4   2   1     1.396367877607   120.17875836   180.01609676
 C      6   4   2     1.397837513658   120.44189699     0.00000000
[...]
      py      :     0.019862



                     *******************************
                     * LOEWDIN POPULATION ANALYSIS *
                     *******************************

----------------------
LOEWDIN ATOMIC CHARGES
----------------------
   0 N :   -0.023689
   1 C :    0.030279
   2 C :   -0.075529
   3 C :   -0.075529
   4 C :   -0.016535
   5 C :   -0.016535
   6 C :   -0.069012
   7 H :    0.017466
   8 H :    0.017466
   9 H :    0.024547
  10 H :    0.024547
  11 H :    0.021058
  12 H :    0.070733
  13 H :    0.070733

-------------------------------
LOEWDIN REDUCED ORBITAL CHARGES
-------------------------------
  0 N s       :     3.015713  s :     3.015713
      pz      :     1.692490  p :     3.966749
      px      :     1.135897
      py      :     1.138363
      dz2     :     0.002847  d :     0.041227
      dxz     :     0.004900
      dyz     :     0.000036
      dx2y2   :     0.013546
      dxy     :     0.019897

  1 C s       :     2.834797  s :     2.834797
      pz      :     0.934350  p :     2.986881
      px      :     0.955490
      py      :     1.097041
      dz2     :     0.009491  d :     0.148043
      dxz     :     0.035253
      dyz     :     0.013544
      dx2y2   :     0.050412
      dxy     :     0.039343

  2 C s       :     2.859199  s :     2.859199
      pz      :     1.058472  p :     3.130203
      px      :     1.052972
      py      :     1.018759
      dz2     :     0.006280  d :     0.086128
      dxz     :     0.010559
      dyz     :     0.005316
      dx2y2   :     0.028304
      dxy     :     0.035668

  3 C s       :     2.859199  s :     2.859199
      pz      :     1.058472  p :     3.130202
      px      :     1.052973
      py      :     1.018758
      dz2     :     0.006280  d :     0.086127
      dxz     :     0.010561
      dyz     :     0.005315
      dx2y2   :     0.028305
      dxy     :     0.035667

  4 C s       :     2.861274  s :     2.861274
      pz      :     0.958030  p :     3.062454
      px      :     1.059605
      py      :     1.044819
      dz2     :     0.006086  d :     0.092806
      dxz     :     0.014491
      dyz     :     0.006835
      dx2y2   :     0.031898
      dxy     :     0.033496

  5 C s       :     2.861274  s :     2.861274
      pz      :     0.958030  p :     3.062455
      px      :     1.059600
      py      :     1.044825
      dz2     :     0.006086  d :     0.092806
      dxz     :     0.014489
      dyz     :     0.006837
      dx2y2   :     0.031896
      dxy     :     0.033499

  6 C s       :     2.858038  s :     2.858038
      pz      :     1.030812  p :     3.121888
      px      :     1.030675
      py      :     1.060401
      dz2     :     0.006206  d :     0.089086
      dxz     :     0.003996
      dyz     :     0.012719
      dx2y2   :     0.035099
      dxy     :     0.031066

  7 H s       :     0.914775  s :     0.914775
      pz      :     0.016620  p :     0.067759
      px      :     0.017352
      py      :     0.033787

  8 H s       :     0.914775  s :     0.914775
      pz      :     0.016620  p :     0.067759
      px      :     0.017348
      py      :     0.033791

  9 H s       :     0.909791  s :     0.909791
      pz      :     0.013828  p :     0.065663
      px      :     0.018013
      py      :     0.033821

 10 H s       :     0.909791  s :     0.909791
      pz      :     0.013828  p :     0.065663
      px      :     0.018018
      py      :     0.033817

 11 H s       :     0.911504  s :     0.911504
      pz      :     0.016083  p :     0.067438
      px      :     0.040584
      py      :     0.010771

 12 H s       :     0.805164  s :     0.805164
      pz      :     0.043745  p :     0.124102
      px      :     0.028316
      py      :     0.052041

 13 H s       :     0.805165  s :     0.805165
      pz      :     0.043745  p :     0.124102
      px      :     0.028323
      py      :     0.052034



                      *****************************
                      * MAYER POPULATION ANALYSIS *
                      *****************************

  NA   - Mulliken gross atomic population
  ZA   - Total nuclear charge
  QA   - Mulliken gross atomic charge
  VA   - Mayer's total valence
  BVA  - Mayer's bonded valence
  FA   - Mayer's free valence

  ATOM       NA         ZA         QA         VA         BVA        FA
  0 N      7.0827     7.0000    -0.0827     3.1974     3.1974    -0.0000
  1 C      5.9135     6.0000     0.0865     4.0612     4.0612     0.0000
  2 C      6.0357     6.0000    -0.0357     3.7918     3.7918     0.0000
  3 C      6.0357     6.0000    -0.0357     3.7918     3.7918     0.0000
  4 C      5.9839     6.0000     0.0161     3.8710     3.8710     0.0000
  5 C      5.9839     6.0000     0.0161     3.8710     3.8710    -0.0000
  6 C      5.9930     6.0000     0.0070     3.8104     3.8104     0.0000
  7 H      1.0517     1.0000    -0.0517     0.9838     0.9838     0.0000
  8 H      1.0517     1.0000    -0.0517     0.9838     0.9838     0.0000
  9 H      1.0248     1.0000    -0.0248     0.9759     0.9759     0.0000
 10 H      1.0248     1.0000    -0.0248     0.9759     0.9759    -0.0000
 11 H      1.0300     1.0000    -0.0300     0.9772     0.9772     0.0000
 12 H      0.8943     1.0000     0.1057     1.0033     1.0033    -0.0000
 13 H      0.8943     1.0000     0.1057     1.0033     1.0033    -0.0000

  Mayer bond orders larger than 0.100000
B(  0-N ,  1-C ) :   1.2388 B(  0-N , 12-H ) :   0.9509 B(  0-N , 13-H ) :   0.9509 
B(  1-C ,  2-C ) :   1.3200 B(  1-C ,  3-C ) :   1.3200 B(  2-C ,  4-C ) :   1.4065 
B(  2-C ,  7-H ) :   0.9835 B(  3-C ,  5-C ) :   1.4065 B(  3-C ,  8-H ) :   0.9835 
B(  4-C ,  6-C ) :   1.3714 B(  4-C ,  9-H ) :   0.9783 B(  5-C ,  6-C ) :   1.3714 
B(  5-C , 10-H ) :   0.9783 B(  6-C , 11-H ) :   0.9870 

Environment variable NBOEXE for nbo6.exe or nbo5.exe not set! Skipping NBO-Analysis

-------
TIMINGS
-------

Total SCF time: 0 days 0 hours 0 min 3 sec 

Total time                  ....       3.855 sec
Sum of individual times     ....       3.832 sec  ( 99.4%)

SCF preparation             ....       0.273 sec  (  7.1%)
Fock matrix formation       ....       3.490 sec  ( 90.5%)
  Startup                   ....       0.002 sec  (  0.1% of F)
  Split-RI-J                ....       0.217 sec  (  6.2% of F)
  Chain of spheres X        ....       2.701 sec  ( 77.4% of F)
  XC integration            ....       0.561 sec  ( 16.1% of F)
    Basis function eval.    ....       0.237 sec  ( 42.3% of XC)
    Density eval.           ....       0.088 sec  ( 15.7% of XC)
    XC-Functional eval.     ....       0.065 sec  ( 11.6% of XC)
    XC-Potential eval.      ....       0.140 sec  ( 25.0% of XC)
Diagonalization             ....       0.000 sec  (  0.0%)
Density matrix formation    ....       0.004 sec  (  0.1%)
Total Energy calculation    ....       0.004 sec  (  0.1%)
Population analysis         ....       0.027 sec  (  0.7%)
Orbital Transformation      ....       0.005 sec  (  0.1%)
Orbital Orthonormalization  ....       0.000 sec  (  0.0%)
DIIS solution               ....       0.010 sec  (  0.3%)
SOSCF solution              ....       0.018 sec  (  0.5%)
Finished LeanSCF after   3.9 sec

Maximum memory used throughout the entire LEANSCF-calculation: 14.6 MB
[psid00:41663] 3 more processes have sent help message help-mpi-btl-openib.txt / ib port not selected
[psid00:41663] Set MCA parameter "orte_base_help_aggregate" to 0 to see all help / error messages
[psid00:41663] 3 more processes have sent help message help-mpi-btl-openib.txt / error in device init


-------------------------------------------------------------------------------
                          DFT DISPERSION CORRECTION                            
                                                                               
                              DFTD3 V3.1  Rev 1                                
                          USING Becke-Johnson damping                          
-------------------------------------------------------------------------------
The B3LYP functional is recognized
Active option DFTDOPT                   ...         4   

molecular C6(AA) [au] = 2152.330105 


            DFT-D V3
 parameters
 s6 scaling factor         :     1.0000 
 a1 scaling factor         :     0.3981 
 s8 scaling factor         :     1.9889 
 a2 scaling factor         :     4.4211 
 ad hoc parameters k1-k3   :    16.0000     1.3333    -4.0000 

 Edisp/kcal,au: -14.270879926064  -0.022742092341 
 E6   /kcal   :  -6.644293730 
 E8   /kcal   :  -7.626586196 
 % E8         :  53.441597404 

-------------------------   ----------------
Dispersion correction           -0.022742092
-------------------------   ----------------


-------------------------   --------------------
FINAL SINGLE POINT ENERGY      -287.240084733927
-------------------------   --------------------

                                *** OPTIMIZATION RUN DONE ***

--------------------------------------------------------------------------
By default, for Open MPI 4.0 and later, infiniband ports on a device
are not used by default.  The intent is to use UCX for these devices.
You can override this policy by setting the btl_openib_allow_ib MCA parameter
to true.

  Local host:              psid00
  Local adapter:           mlx5_0
  Local port:              1

--------------------------------------------------------------------------
--------------------------------------------------------------------------
WARNING: There was an error initializing an OpenFabrics device.

  Local host:   psid00
  Local device: mlx5_0
--------------------------------------------------------------------------


           ************************************************************
           *        Program running with 4 parallel MPI-processes     *
           *              working on a common directory               *
           ************************************************************

------------------------------------------------------------------------------
                              ORCA PROPERTY CALCULATIONS
------------------------------------------------------------------------------

GBWName                                 ... aniline_2.gbw
Number of atoms                         ...     14
Number of basis functions               ...    133
Max core memory                         ...   1024 MB

Electric properties:
Dipole moment                           ... YES
Quadrupole moment                       ...  NO
Static polarizability (Dipole/Dipole)   ...  NO
Static polarizability (Dipole/Quad.)    ...  NO
Static polarizability (Quad./Quad.)     ...  NO
Static polarizability (Velocity)        ...  NO

Atomic electric properties:
Dipole moment                           ...  NO
Quadrupole moment                       ...  NO
Static polarizability                   ...  NO

Choice of electric origin               ... Center of mass
Position of electric origin             ...    -0.122129     0.000099     0.001224

General magnetic properties:
Magnetizability                         ...  NO

EPR properties:
g-Tensor (aka g-matrix)                 ...  NO
Zero-Field splitting spin-orbit         ...  NO
Zero-field splitting spin-spin          ...  NO
Hyperfine couplings                     ...  NO (   0 nuclei)
Quadrupole couplings                    ...  NO (   0 nuclei)
Contact density                         ...  NO (   0 nuclei)

NMR properties:
Chemical shifts                         ...  NO (   0 nuclei)
Spin-rotation constants                 ...  NO (   0 nuclei)
Spin-spin couplings                     ...  NO (   0 nuclei,    0 pairs)

Choice of magnetic origin               ... GIAO
Position of magnetic origin             ...     0.000000     0.000000     0.000000

Properties with geometric perturbations:
SCF Hessian                             ...  NO
IR spectrum                             ...  NO
VCD spectrum                            ...  NO
X-ray spectroscopy properties:
SCF XES/XAS/RIXS spectra                ...  NO


-------------
DIPOLE MOMENT
-------------

Method             : SCF
Type of density    : Electron Density
Multiplicity       :   1
Irrep              :   0
Energy             :  -287.2173426415860717 Eh
Relativity type    : 
Basis              : AO
                                X                 Y                 Z
Electronic contribution:     -0.016680509      -0.000001157       0.002915443
Nuclear contribution   :     -0.828688457      -0.000071003      -0.009457466
                        -----------------------------------------
Total Dipole Moment    :     -0.845368966      -0.000072160      -0.006542023
                        -----------------------------------------
Magnitude (a.u.)       :      0.845394282
Magnitude (Debye)      :      2.148821496



--------------------
Rotational spectrum 
--------------------
 
Rotational constants in cm-1:             0.186865             0.086257             0.059016 
Rotational constants in MHz :          5602.067849          2585.928245          1769.242666 

Dipole components along the rotational axes: 
x,y,z [a.u.] :    -0.845366    -0.000000    -0.006933 
x,y,z [Debye]:    -2.148749    -0.000001    -0.017623 

 

Dipole moment calculation done in   0.0 sec 

Maximum memory used throughout the entire PROP-calculation: 7.2 MB
[psid00:41683] 3 more processes have sent help message help-mpi-btl-openib.txt / ib port not selected
[psid00:41683] Set MCA parameter "orte_base_help_aggregate" to 0 to see all help / error messages
[psid00:41683] 3 more processes have sent help message help-mpi-btl-openib.txt / error in device init
--------------------------------------------------------------------------
By default, for Open MPI 4.0 and later, infiniband ports on a device
are not used by default.  The intent is to use UCX for these devices.
You can override this policy by setting the btl_openib_allow_ib MCA parameter
to true.

  Local host:              psid00
  Local adapter:           mlx5_0
  Local port:              1

--------------------------------------------------------------------------
--------------------------------------------------------------------------
WARNING: There was an error initializing an OpenFabrics device.

  Local host:   psid00
  Local device: mlx5_0
--------------------------------------------------------------------------
[psid00:41700] 3 more processes have sent help message help-mpi-btl-openib.txt / ib port not selected
[psid00:41700] Set MCA parameter "orte_base_help_aggregate" to 0 to see all help / error messages
[psid00:41700] 3 more processes have sent help message help-mpi-btl-openib.txt / error in device init

--------------------------------
SUGGESTED CITATIONS FOR THIS RUN
--------------------------------

Below you find a list of papers that are relevant to this ORCA run
We neither can nor want to force you to cite these papers, but we appreciate if you do
You receive ORCA, which is the product of decades of hard work by many enthusiastic individuals, for free
The only thing we kindly ask in return is that you cite our papers,
We deeply appreciate it, if you show your appreciation for ORCA by not just citing the generic ORCA reference.

Please note that relegating all ORCA citations to the supporting information does *not* help us.
SI sections are not indexed - citations you put there will not count into any citation statistics
But we need these citations in order to attract the funding resources that allow us to do what we are doing

Therefore, if you are a happy ORCA user, please consider citing a few of the papers listed below in the main body of your paper

In addition to the list printed below, the program has created the file aniline_2.bibtex that contains the list in bibtex format
You can import this file easily into all common literature databanks and citation aid programs


List of essential papers. We consider these as the minimum necessary citations

  1. Neese,F.
     Software update: the ORCA program system, version 5.0
     WIRES Comput. Molec. Sci., 2022 12(1)e1606
     doi.org/10.1002/wcms.1606

List of papers to cite with high priority. The work reported in these papers was absolutely
necessary for this run to complete.
Our perspective: the developers of density functionals and basis sets usually get cited in chemistry papers
Good! But without the algorithms to do something with them, the functionals or basis sets would not do anything.
Hence, in our opinion, the algorithm design and method developments papers are equally worthy of getting cited

  1. Neese,F.
     An improvement of the resolution of the identity approximation for the formation of the Coulomb matrix
     J. Comp. Chem., 2003 24(14)1740-1747
     doi.org/10.1002/jcc.10318
  2. Neese,F.; Wennmohs,F.; Hansen,A.; Becker,U.
     Efficient, approximate and parallel Hartree-Fock and hybrid DFT calculations. A 'chain-of-spheres' algorithm for the Hartree-Fock exchange
     Chem. Phys., 2009 356(1-3)98-109
     doi.org/10.1016/j.chemphys.2008.10.036
  3. Helmich-Paris,B.; de Souza,B.; Neese,F.; Izsák,R.
     An improved chain of spheres for exchange algorithm
     J. Chem. Phys., 2021 155 104109
     doi.org/doi: 10.1063/5.0058766.
  4. Neese,F.
     The SHARK Integral Generation and Digestion System
     J. Comp. Chem., 2022  1-16
     doi.org/10.1002/jcc.26942
  5. Grimme,S.; Antony,J.; Ehrlich,S.; Krieg,H.
     A consistent and accurate ab initio parametrization of density functional dispersion correction (DFT-D) for the 94 elements H-Pu
     J. Chem. Phys., 2010 132 154104
     doi.org/10.1063/1.3382344
  6. Grimme,S.; Ehrlich,S.; Goerigk,L.
     Effect of the damping function in dispersion corrected density functional theory
     J. Comput. Chem., 2011 32(7)1456-1465
     doi.org/10.1002/jcc.21759

List of suggested additional citations. These are papers that are important in the 'surrounding' of 
of this run, or papers that preceded the highly important papers. If you like your results we are grateful for a citation.

  1. Izsak,R.; Neese,F.
     An overlap fitted chain of spheres exchange method
     J. Chem. Phys., 2011 135 144105
     doi.org/10.1063/1.3646921
  2. Izsak,R.; Hansen,A.; Neese,F.
     The resolution of identity and chain of spheres approximations for the LPNO-CCSD singles Fock term
     Molec. Phys., 2012 110 2413-2417
     doi.org/10.1080/00268976.2012.687466
  3. Neese,F.
     The ORCA program system
     WIRES Comput. Molec. Sci., 2012 2(1)73-78
     doi.org/10.1002/wcms.81
  4. Izsak,R.; Neese,F.; Klopper,W.
     Robust fitting techniques in the chain of spheres approximation to the Fock exchange: The role of the complementary space
     J. Chem. Phys., 2013 139 
     doi.org/10.1063/1.4819264
  5. Neese,F.
     Software update: the ORCA program system, version 4.0
     WIRES Comput. Molec. Sci., 2018 8(1)1-6
     doi.org/10.1002/wcms.1327
  6. Neese,F.; Wennmohs,F.; Becker,U.; Riplinger,C.
     The ORCA quantum chemistry program package
     J. Chem. Phys., 2020 152 Art. No. L224108
     doi.org/10.1063/5.0004608

List of optional additional citations

  1. Neese,F.
     Approximate second-order SCF convergence for spin unrestricted wavefunctions
     Chem. Phys. Lett., 2000 325(1-3)93-98
     doi.org/10.1016/s0009-2614(00)00662-x

Timings for individual modules:

Sum of individual times          ...       63.838 sec (=   1.064 min)
Startup calculation              ...        6.192 sec (=   0.103 min)   9.7 %
SCF iterations                   ...       32.462 sec (=   0.541 min)  50.9 %
Property calculations            ...        0.369 sec (=   0.006 min)   0.6 %
SCF Gradient evaluation          ...       24.769 sec (=   0.413 min)  38.8 %
Geometry relaxation              ...        0.046 sec (=   0.001 min)   0.1 %
                             ****ORCA TERMINATED NORMALLY****
TOTAL RUN TIME: 0 days 0 hours 1 minutes 6 seconds 56 msec
