# vtk DataFile Version 1.0
Cube
ASCII

DATASET POLYDATA
POINTS 225 float
16.145282 14.458473 0.858449
12.200038 2.835692 9.442595
16.145275 10.517467 7.763981
12.200019 10.297055 16.424694
16.025271 4.595871 16.386411
19.970514 16.218652 7.802264
16.025278 8.536877 9.480879
19.970533 8.757289 0.820166
26.891363 15.471862 15.915281
28.313307 14.353299 14.466713
28.331001 17.502818 11.981729
18.787605 3.193468 13.404429
14.422048 13.841956 10.572823
16.460057 14.373858 9.555377
16.625729 17.756631 11.769617
14.587720 17.204696 12.757747
11.611974 2.985181 0.305234
13.347575 4.102539 1.341650
12.770110 1.861502 4.676806
11.003947 0.774062 3.628318
19.046581 16.222830 3.628318
15.694421 2.955393 1.891761
17.454153 4.121573 0.945018
16.957110 7.121442 3.559339
15.067087 6.052329 4.445725
18.848725 13.109653 9.952009
20.270662 14.228217 11.400577
20.288355 11.078698 13.885561
18.787600 9.939280 12.462860
22.464690 14.739560 15.294466
24.502696 14.207658 16.311913
24.668382 10.824885 14.097673
22.630375 11.376820 13.109542
19.654608 6.541991 8.317196
21.390215 5.424633 7.280780
20.812755 7.665670 3.945624
19.046587 8.753110 4.994111
7.651759 6.571779 6.730669
9.411491 5.405599 7.677412
8.914463 2.405730 5.063091
7.024440 3.474843 4.176705
5.279190 3.582481 1.329579
3.857246 4.701045 2.778147
3.839551 1.551526 5.263131
13.382947 15.860876 3.840430
17.748504 5.212388 6.672036
15.710495 4.680486 7.689483
15.544824 1.297713 5.475243
17.582832 1.849648 4.487112
20.558578 16.069163 16.939626
18.822977 14.951805 15.903210
19.400442 17.192842 12.568054
21.166605 18.280282 13.616541
16.476131 16.098951 15.353099
14.716399 14.932771 16.299841
15.213442 11.932901 13.685521
17.103465 13.002015 12.799135
13.321827 5.944690 7.292851
11.899890 4.826127 5.844283
11.882197 7.975646 3.359299
13.382952 9.115064 4.782000
9.705862 4.314784 1.950394
7.667856 4.846686 0.932947
7.502170 8.229459 3.147187
9.540177 7.677524 4.135317
12.515944 12.512353 8.927664
10.780338 13.629711 9.964080
11.357797 11.388673 13.299236
13.123966 10.301234 12.250748
24.518793 12.482564 10.514191
22.759061 13.648745 9.567448
23.256090 16.648614 12.181769
25.146112 15.579501 13.068155
25.738044 17.876349 15.689373
26.699948 17.173386 14.809885
27.164814 15.893264 15.108222
28.014120 15.229337 14.252877
28.430730 15.827918 13.088848
28.020554 17.086617 12.776717
27.132643 17.772173 13.632062
14.304622 15.508317 11.700637
14.866002 14.651998 10.797007
16.083659 14.957442 10.203783
16.751197 16.131206 10.564201
16.178558 16.959822 11.512668
14.964118 16.639135 12.092096
18.062150 16.490612 9.874407
11.122980 1.768153 1.865894
11.840384 2.767913 1.201967
12.860191 3.437442 1.810710
13.177069 3.125186 3.147187
12.515964 2.108277 3.795594
11.480072 1.455329 3.162707
15.195773 4.419282 3.233411
15.924439 3.821981 2.209067
16.974810 4.504738 1.669302
17.362463 5.753177 2.150434
16.674010 6.294194 3.193748
15.560907 5.649956 3.740410
18.456264 6.491903 1.457191
9.979317 1.088734 1.195069
17.695411 10.705167 10.177916
18.657310 11.408130 11.057404
19.122174 12.688251 10.759068
19.971476 13.352179 11.614413
20.388084 12.753598 12.778441
19.977909 11.494899 13.090573
19.090003 10.809343 12.235228
22.347271 13.073199 14.166652
22.908645 13.929518 15.070283
24.126302 13.624074 15.663506
24.793844 12.450310 15.303088
24.221209 11.621694 14.354621
23.006770 11.942381 13.775194
26.104795 12.090903 15.992883
19.165616 7.759018 6.756536
19.883020 6.759259 7.420463
20.902830 6.089730 6.811720
21.219712 6.401986 5.475243
20.558606 7.418895 4.826836
19.522711 8.071843 5.459723
7.153119 5.107890 5.389019
7.881781 5.705191 6.413363
8.932151 5.022433 6.953127
9.319808 3.773994 6.471996
8.631360 3.232978 5.428682
7.518257 3.877216 4.882020
10.413608 3.035269 7.165239
18.021949 8.438437 7.427361
6.432508 1.177995 1.555486
5.470605 1.880958 2.434974
5.005739 3.161079 2.136638
4.156433 3.825007 2.991983
3.739822 3.226426 4.156011
4.149998 1.967727 4.468143
5.037909 1.282171 3.612798
17.865930 3.546027 5.544222
17.304551 4.402346 6.447853
16.086893 4.096902 7.041076
15.419355 2.923138 6.680659
15.991994 2.094522 5.732191
17.206435 2.415209 5.152764
14.108402 2.563731 7.370453
21.047572 17.286190 15.378966
20.330168 16.286431 16.042893
19.310361 15.616902 15.434149
18.993483 15.929158 14.097673
19.654589 16.946066 13.449266
20.690480 17.599015 14.082152
16.974779 14.635062 14.011448
16.246113 15.232362 15.035793
15.195743 14.549605 15.575557
14.808089 13.301166 15.094426
15.496542 12.760150 14.051112
16.609645 13.404388 13.504450
13.714288 12.562441 15.787669
22.191235 17.965609 16.049791
14.475141 8.349177 7.066943
13.513243 7.646214 6.187456
13.048378 6.366092 6.485792
12.199076 5.702165 5.630447
11.782468 6.300746 4.466419
12.192643 7.559445 4.154287
13.080549 8.245001 5.009632
9.823281 5.981145 3.078207
9.261907 5.124826 2.174577
8.044250 5.430270 1.581354
7.376709 6.604034 1.941771
7.949343 7.432650 2.890238
9.163782 7.111963 3.469666
6.065757 6.963441 1.251977
13.004936 11.295325 10.488324
12.287532 12.295085 9.824397
11.267722 12.964613 10.433140
10.950840 12.652358 11.769617
11.611946 11.635449 12.418023
12.647841 10.982501 11.785137
25.017433 13.946454 11.855841
24.288772 13.349153 10.831496
23.238402 14.031910 10.291732
22.850744 15.280349 10.772864
23.539192 15.821366 11.816178
24.652295 15.177128 12.362840
21.756944 16.019075 10.079620
14.148603 10.615906 9.817499
25.424380 17.321071 16.772351
17.278801 3.547958 15.308262
13.117527 15.047816 12.254197
18.657305 17.501293 10.319324
18.425680 15.742793 8.920766
17.627861 15.437524 1.689996
14.126100 3.792609 3.871471
19.006384 5.906603 0.482856
18.740972 7.643217 1.872792
9.498368 1.662245 0.184520
17.381749 11.260444 9.094939
17.278802 9.584790 10.559028
21.160176 13.533699 13.613092
26.699953 11.080223 15.547965
26.468320 12.838723 16.946524
17.627859 9.538416 6.932434
6.083447 5.734563 4.750959
10.963724 3.620569 8.139574
10.698320 1.883955 6.749638
17.540998 7.864927 8.437910
6.746172 1.733272 0.472509
14.891751 15.506386 1.936598
19.053026 4.006527 4.990662
13.513248 1.553051 6.925536
13.744872 3.311551 8.324094
14.542691 3.616820 15.554863
18.044452 15.261735 13.373389
13.164169 13.147740 16.762004
13.429580 11.411126 15.372068
22.672185 17.392099 17.060340
14.788804 7.793899 8.149921
14.891750 9.469554 6.685832
11.010376 5.520645 3.631767
5.470599 7.974121 1.696894
5.702232 6.215621 0.298336
14.542693 9.515927 10.312426
26.087105 13.319781 12.493901
21.206829 15.433775 9.105286
21.472232 17.170389 10.495222
14.629554 11.189417 8.806950
POINT_DATA 225
SCALARS my_scalars float
LOOKUP_TABLE default
1.4
1.4
1.4
1.4
1.4
1.4
1.4
1.4
1.09
1.09
1.09
1.09
1.09
1.09
1.09
1.09
1.09
1.09
1.09
1.09
1.09
1.09
1.09
1.09
1.09
1.09
1.09
1.09
1.09
1.09
1.09
1.09
1.09
1.09
1.09
1.09
1.09
1.09
1.09
1.09
1.09
1.09
1.09
1.09
1.09
1.09
1.09
1.09
1.09
1.09
1.09
1.09
1.09
1.09
1.09
1.09
1.09
1.09
1.09
1.09
1.09
1.09
1.09
1.09
1.09
1.09
1.09
1.09
1.09
1.09
1.09
1.09
1.09
1.7
1.7
1.7
1.7
1.7
1.7
1.7
1.7
1.7
1.7
1.7
1.7
1.7
1.7
1.7
1.7
1.7
1.7
1.7
1.7
1.7
1.7
1.7
1.7
1.7
1.7
1.7
1.7
1.7
1.7
1.7
1.7
1.7
1.7
1.7
1.7
1.7
1.7
1.7
1.7
1.7
1.7
1.7
1.7
1.7
1.7
1.7
1.7
1.7
1.7
1.7
1.7
1.7
1.7
1.7
1.7
1.7
1.7
1.7
1.7
1.7
1.7
1.7
1.7
1.7
1.7
1.7
1.7
1.7
1.7
1.7
1.7
1.7
1.7
1.7
1.7
1.7
1.7
1.7
1.7
1.7
1.7
1.7
1.7
1.7
1.7
1.7
1.7
1.7
1.7
1.7
1.7
1.7
1.7
1.7
1.7
1.7
1.7
1.7
1.7
1.7
1.7
1.7
1.7
1.7
1.7
1.7
1.7
1.7
1.7
1.7
1.7
1.52
1.52
1.52
1.52
1.52
1.52
1.52
1.52
1.52
1.52
1.52
1.52
1.52
1.52
1.52
1.52
1.52
1.52
1.52
1.52
1.52
1.52
1.52
1.52
1.52
1.52
1.52
1.52
1.52
1.52
1.52
1.52
1.52
1.52
1.52
1.52
1.52
1.52
1.52
1.52
VECTORS vectors float
0.4375 0 0
0.4375 0 0
0.4375 0 0
0.4375 0 0
0.4375 0 0
0.4375 0 0
0.4375 0 0
0.4375 0 0
0.25 0 0
0.25 0 0
0.25 0 0
0.25 0 0
0.25 0 0
0.25 0 0
0.25 0 0
0.25 0 0
0.25 0 0
0.25 0 0
0.25 0 0
0.25 0 0
0.25 0 0
0.25 0 0
0.25 0 0
0.25 0 0
0.25 0 0
0.25 0 0
0.25 0 0
0.25 0 0
0.25 0 0
0.25 0 0
0.25 0 0
0.25 0 0
0.25 0 0
0.25 0 0
0.25 0 0
0.25 0 0
0.25 0 0
0.25 0 0
0.25 0 0
0.25 0 0
0.25 0 0
0.25 0 0
0.25 0 0
0.25 0 0
0.25 0 0
0.25 0 0
0.25 0 0
0.25 0 0
0.25 0 0
0.25 0 0
0.25 0 0
0.25 0 0
0.25 0 0
0.25 0 0
0.25 0 0
0.25 0 0
0.25 0 0
0.25 0 0
0.25 0 0
0.25 0 0
0.25 0 0
0.25 0 0
0.25 0 0
0.25 0 0
0.25 0 0
0.25 0 0
0.25 0 0
0.25 0 0
0.25 0 0
0.25 0 0
0.25 0 0
0.25 0 0
0.25 0 0
0.3125 0 0
0.3125 0 0
0.3125 0 0
0.3125 0 0
0.3125 0 0
0.3125 0 0
0.3125 0 0
0.3125 0 0
0.3125 0 0
0.3125 0 0
0.3125 0 0
0.3125 0 0
0.3125 0 0
0.3125 0 0
0.3125 0 0
0.3125 0 0
0.3125 0 0
0.3125 0 0
0.3125 0 0
0.3125 0 0
0.3125 0 0
0.3125 0 0
0.3125 0 0
0.3125 0 0
0.3125 0 0
0.3125 0 0
0.3125 0 0
0.3125 0 0
0.3125 0 0
0.3125 0 0
0.3125 0 0
0.3125 0 0
0.3125 0 0
0.3125 0 0
0.3125 0 0
0.3125 0 0
0.3125 0 0
0.3125 0 0
0.3125 0 0
0.3125 0 0
0.3125 0 0
0.3125 0 0
0.3125 0 0
0.3125 0 0
0.3125 0 0
0.3125 0 0
0.3125 0 0
0.3125 0 0
0.3125 0 0
0.3125 0 0
0.3125 0 0
0.3125 0 0
0.3125 0 0
0.3125 0 0
0.3125 0 0
0.3125 0 0
0.3125 0 0
0.3125 0 0
0.3125 0 0
0.3125 0 0
0.3125 0 0
0.3125 0 0
0.3125 0 0
0.3125 0 0
0.3125 0 0
0.3125 0 0
0.3125 0 0
0.3125 0 0
0.3125 0 0
0.3125 0 0
0.3125 0 0
0.3125 0 0
0.3125 0 0
0.3125 0 0
0.3125 0 0
0.3125 0 0
0.3125 0 0
0.3125 0 0
0.3125 0 0
0.3125 0 0
0.3125 0 0
0.3125 0 0
0.3125 0 0
0.3125 0 0
0.3125 0 0
0.3125 0 0
0.3125 0 0
0.3125 0 0
0.3125 0 0
0.3125 0 0
0.3125 0 0
0.3125 0 0
0.3125 0 0
0.3125 0 0
0.3125 0 0
0.3125 0 0
0.3125 0 0
0.3125 0 0
0.3125 0 0
0.3125 0 0
0.3125 0 0
0.3125 0 0
0.3125 0 0
0.3125 0 0
0.3125 0 0
0.3125 0 0
0.3125 0 0
0.3125 0 0
0.3125 0 0
0.3125 0 0
0.3125 0 0
0.3125 0 0
0.03125 0 0
0.03125 0 0
0.03125 0 0
0.03125 0 0
0.03125 0 0
0.03125 0 0
0.03125 0 0
0.03125 0 0
0.03125 0 0
0.03125 0 0
0.03125 0 0
0.03125 0 0
0.03125 0 0
0.03125 0 0
0.03125 0 0
0.03125 0 0
0.03125 0 0
0.03125 0 0
0.03125 0 0
0.03125 0 0
0.03125 0 0
0.03125 0 0
0.03125 0 0
0.03125 0 0
0.03125 0 0
0.03125 0 0
0.03125 0 0
0.03125 0 0
0.03125 0 0
0.03125 0 0
0.03125 0 0
0.03125 0 0
0.03125 0 0
0.03125 0 0
0.03125 0 0
0.03125 0 0
0.03125 0 0
0.03125 0 0
0.03125 0 0
0.03125 0 0
