LAMMPS (2 Aug 2023 - Update 4)
OMP_NUM_THREADS environment is not set. Defaulting to 1 thread. (src/comm.cpp:98)
  using 1 OpenMP thread(s) per MPI task
variable i loop 20
label loop_start
clear  # 초기화
OMP_NUM_THREADS environment is not set. Defaulting to 1 thread. (src/comm.cpp:98)
  using 1 OpenMP thread(s) per MPI task

# Create and move to a new directory for this run
shell mkdir run_${i}
shell mkdir run_1
shell cd run_${i}
shell cd run_1

# LAMMPS Input Script for Finding O2- Adsorption Site for DFT
units real
atom_style charge  # ReaxFF requires charge
boundary p p p  # Periodic boundary conditions

# Copy input files to the new directory
shell cp ../chelpg_updated_honokiol_2_remove_bond.data .
shell cp ../chelpg_updated_O2_remove_bond.data .
shell cp ../ffield.reax.rdx .
WARNING: Shell command cp ../ffield.reax.rdx . returned with non-zero status (src/input.cpp:1308)

# Read input data files
read_data chelpg_updated_honokiol_2_remove_bond.data
Reading data file ...
  orthogonal box = (-15 -15 -15) to (15 15 15)
  1 by 1 by 1 MPI processor grid
WARNING: Atom style in data file full differs from currently defined atom style charge (src/read_data.cpp:621)
  reading atoms ...
  38 atoms
  read_data CPU = 0.005 seconds
read_data chelpg_updated_O2_remove_bond.data add append
Reading data file ...
  orthogonal box = (-15 -15 -15) to (15 15 15)
  1 by 1 by 1 MPI processor grid
WARNING: Atom style in data file full differs from currently defined atom style charge (src/read_data.cpp:621)
  reading atoms ...
  2 atoms
  read_data CPU = 0.002 seconds

# Define groups
group honokiol type 1 2 3  # Honokiol (C, H, O)
38 atoms in group honokiol
group O2molecule type 4  # O2- (assumed type 4)
2 atoms in group O2molecule

# Fix Honokiol to prevent unwanted movement
fix freeze honokiol setforce 0.0 0.0 0.0

# Define ReaxFF pair style and parameters
pair_style reax/c NULL
pair_coeff * * ffield.reax.rdx C H O O  # O2- included
Reading potential file ffield.reax.rdx with DATE: 2010-02-19

# Charge equilibration (QEq) required for ReaxFF
fix 1 all qeq/reaxff 1 0.0 10.0 1.0e-6 reaxff

# Define MSD computation
compute msdO O2molecule msd

# Generate different random positions for O2-
variable seed1 equal 12345+v_i*1000
variable seed2 equal 67890+v_i*1000
variable seed3 equal 54321+v_i*1000
variable dx equal random(-5,5,v_seed1)
variable dy equal random(-5,5,v_seed2)
variable dz equal random(-5,5,v_seed3)
displace_atoms O2molecule move ${dx} ${dy} ${dz} units box
displace_atoms O2molecule move 0.929287075996399 ${dy} ${dz} units box
displace_atoms O2molecule move 0.929287075996399 -4.22945976257324 ${dz} units box
displace_atoms O2molecule move 0.929287075996399 -4.22945976257324 1.85842573642731 units box
Displacing atoms ...

# Initial energy minimization to relax high-force configurations
minimize 1.0e-6 1.0e-8 5000 10000

CITE-CITE-CITE-CITE-CITE-CITE-CITE-CITE-CITE-CITE-CITE-CITE-CITE

Your simulation uses code contributions which should be cited:

- pair reaxff command: doi:10.1016/j.parco.2011.08.005

@Article{Aktulga12,
 author = {H. M. Aktulga and J. C. Fogarty and S. A. Pandit and A. Y. Grama},
 title = {Parallel Reactive Molecular Dynamics: {N}umerical Methods and Algorithmic Techniques},
 journal = {Parallel Computing},
 year =    2012,
 volume =  38,
 number =  {4--5},
 pages =   {245--259}
}

- fix qeq/reaxff command: doi:10.1016/j.parco.2011.08.005

@Article{Aktulga12,
 author = {H. M. Aktulga and J. C. Fogarty and S. A. Pandit and A. Y. Grama},
 title = {Parallel Reactive Molecular Dynamics: {N}umerical Methods and Algorithmic Techniques},
 journal = {Parallel Computing},
 year =    2012,
 volume =  38,
 pages =   {245--259}
}

CITE-CITE-CITE-CITE-CITE-CITE-CITE-CITE-CITE-CITE-CITE-CITE-CITE

WARNING: Fix qeq/reaxff group is not charge neutral, net charge = -0.999998 (src/REAXFF/fix_qeq_reaxff.cpp:410)
Neighbor list info ...
  update: every = 1 steps, delay = 0 steps, check = yes
  max neighbors/atom: 2000, page size: 100000
  master list distance cutoff = 12
  ghost atom cutoff = 12
  binsize = 6, bins = 5 5 5
  2 neighbor lists, perpetual/occasional/extra = 2 0 0
  (1) pair reax/c, perpetual
      attributes: half, newton off, ghost
      pair build: half/bin/newtoff/ghost
      stencil: full/ghost/bin/3d
      bin: standard
  (2) fix qeq/reaxff, perpetual, copy from (1)
      attributes: half, newton off
      pair build: copy
      stencil: none
      bin: none
Per MPI rank memory allocation (min/avg/max) = 8.514 | 8.514 | 8.514 Mbytes
   Step          Temp          E_pair         E_mol          TotEng         Press     
         0   0             -4831.1618      0             -4831.1618      1574.7715    
        11   0             -4854.5266      0             -4854.5266      1886.215     
Loop time of 0.006617 on 1 procs for 11 steps with 40 atoms

33.3% CPU use with 1 MPI tasks x 1 OpenMP threads

Minimization stats:
  Stopping criterion = energy tolerance
  Energy initial, next-to-last, final = 
     -4831.16177523773  -4854.52250049399   -4854.5265896081
  Force two-norm initial, final = 430.10059 2.4145436
  Force max component initial, final = 310.066 1.9750408
  Final line search alpha, max atom move = 0.030393573 0.060028547
  Iterations, force evaluations = 11 19

MPI task timing breakdown:
Section |  min time  |  avg time  |  max time  |%varavg| %total
---------------------------------------------------------------
Pair    | 0.0050541  | 0.0050541  | 0.0050541  |   0.0 | 76.38
Neigh   | 0          | 0          | 0          |   0.0 |  0.00
Comm    | 9.1e-06    | 9.1e-06    | 9.1e-06    |   0.0 |  0.14
Output  | 0          | 0          | 0          |   0.0 |  0.00
Modify  | 0.0014442  | 0.0014442  | 0.0014442  |   0.0 | 21.83
Other   |            | 0.0001096  |            |       |  1.66

Nlocal:             40 ave          40 max          40 min
Histogram: 1 0 0 0 0 0 0 0 0 0
Nghost:             25 ave          25 max          25 min
Histogram: 1 0 0 0 0 0 0 0 0 0
Neighs:            775 ave         775 max         775 min
Histogram: 1 0 0 0 0 0 0 0 0 0

Total # of neighbors = 775
Ave neighs/atom = 19.375
Neighbor list builds = 0
Dangerous builds = 0
write_data minimized_structure_${i}.data  # Save minimized structure
write_data minimized_structure_1.data  
System init for write_data ...

# Run NVT MD simulation for O2- to find adsorption site
fix nvt O2molecule nvt temp 300.0 300.0 100.0

fix msdout O2molecule ave/time 100 1 100 c_msdO[1] file msd_O2_${i}.dat
fix msdout O2molecule ave/time 100 1 100 c_msdO[1] file msd_O2_1.dat
fix msdoutX O2molecule ave/time 100 1 100 c_msdO[2] file msd_O2_X_${i}.dat
fix msdoutX O2molecule ave/time 100 1 100 c_msdO[2] file msd_O2_X_1.dat
fix msdoutY O2molecule ave/time 100 1 100 c_msdO[3] file msd_O2_Y_${i}.dat
fix msdoutY O2molecule ave/time 100 1 100 c_msdO[3] file msd_O2_Y_1.dat
fix msdoutZ O2molecule ave/time 100 1 100 c_msdO[4] file msd_O2_Z_${i}.dat
fix msdoutZ O2molecule ave/time 100 1 100 c_msdO[4] file msd_O2_Z_1.dat

# Save total energy to a file
variable etotal equal pe+ke
fix totenergy all print 100 "${etotal}" file total_energy_${i}.dat screen no
fix totenergy all print 100 "${etotal}" file total_energy_1.dat screen no

# Bond Order Analysis (Check if O2- is binding)
fix bonds all reax/c/bonds 1000 bonds_${i}.reax
fix bonds all reax/c/bonds 1000 bonds_1.reax

# Output settings: Save trajectory and bond information
thermo 100
thermo_style custom step temp pe ke etotal press
dump ${i} all atom 100 dump_${i}.lammpstrj  # Save trajectory
dump 1 all atom 100 dump_${i}.lammpstrj  
dump 1 all atom 100 dump_1.lammpstrj  

timestep 0.25
run 200000  # 1000 ps
Per MPI rank memory allocation (min/avg/max) = 12.33 | 12.33 | 12.33 Mbytes
   Step          Temp          PotEng         KinEng         TotEng         Press     
        11   0             -4854.5266      0             -4854.5266      1886.2153    
       100   0.23236819    -4854.5529      0.027013172   -4854.5259      1885.9269    
       200   1.0438575     -4854.6342      0.1213501     -4854.5128      1885.6929    
       300   2.1239042     -4854.6816      0.24690724    -4854.4347      1881.8997    
       400   4.3582403     -4854.7837      0.50665237    -4854.277       1880.2591    
       500   9.0090812     -4854.9512      1.04732       -4853.9038      1879.988     
       600   16.345449     -4855.1864      1.9001844     -4853.2862      1883.7134    
       700   22.68417      -4855.422       2.6370708     -4852.7849      1887.3532    
       800   22.78798      -4855.5281      2.649139      -4852.879       1888.3738    
       900   17.985521     -4855.5085      2.0908455     -4853.4177      1890.343     
      1000   13.599177     -4855.5318      1.580926      -4853.9509      1894.2166    
      1100   11.500913     -4855.6705      1.3369995     -4854.3335      1895.4484    
      1200   11.09904      -4855.925       1.290281      -4854.6347      1896.9527    
      1300   12.039141     -4856.2929      1.3995693     -4854.8933      1894.4185    
      1400   13.46126      -4856.7512      1.5648929     -4855.1863      1890.1149    
      1500   13.731346     -4857.183       1.5962909     -4855.5867      1889.1433    
      1600   12.196931     -4857.4645      1.4179127     -4856.0466      1886.0245    
      1700   9.5334138     -4857.572       1.1082745     -4856.4638      1885.131     
      1800   6.9891626     -4857.5774      0.81250128    -4856.7649      1887.3928    
      1900   5.118373      -4857.5446      0.59501901    -4856.9496      1889.2657    
      2000   4.0599293     -4857.5249      0.47197325    -4857.0529      1889.1194    
      2100   3.7377335     -4857.5423      0.43451747    -4857.1078      1889.0287    
      2200   4.0728039     -4857.6056      0.47346993    -4857.1322      1889.5558    
      2300   4.9782557     -4857.7086      0.57873015    -4857.1299      1888.8139    
      2400   6.3702012     -4857.837       0.74054603    -4857.0965      1886.0034    
      2500   8.107111      -4857.9678      0.94246456    -4857.0253      1883.862     
      2600   10.096711     -4858.0861      1.1737588     -4856.9123      1883.7057    
      2700   12.229868     -4858.1828      1.4217417     -4856.761       1883.5755    
      2800   14.180901     -4858.2521      1.6485523     -4856.6036      1882.317     
      2900   15.082864     -4858.2908      1.753407      -4856.5374      1882.2666    
      3000   13.942042     -4858.2999      1.6207846     -4856.6791      1884.1857    
      3100   10.980072     -4858.2878      1.2764508     -4857.0114      1885.2769    
      3200   7.7089733     -4858.2759      0.89618042    -4857.3797      1884.7079    
      3300   5.2957022     -4858.2819      0.61563381    -4857.6663      1884.7035    
      3400   3.9094026     -4858.3109      0.45447428    -4857.8564      1885.7817    
      3500   3.2683765     -4858.3596      0.37995398    -4857.9796      1886.0079    
      3600   3.0994804     -4858.4226      0.36031953    -4858.0623      1885.0712    
      3700   3.229941      -4858.4939      0.37548578    -4858.1184      1884.6528    
      3800   3.5735122     -4858.5681      0.41542648    -4858.1526      1885.2663    
      3900   4.0870191     -4858.639       0.47512248    -4858.1639      1885.5707    
      4000   4.7467293     -4858.6983      0.55181484    -4858.1465      1885.2407    
      4100   5.5126028     -4858.7304      0.64084885    -4858.0896      1885.872     
      4200   6.2899548     -4858.7076      0.73121726    -4857.9764      1888.0665    
      4300   6.9116976     -4858.5887      0.80349585    -4857.7852      1890.7029    
      4400   7.352138      -4858.3506      0.85469774    -4857.4959      1893.3031    
      4500   8.0368605     -4858.0295      0.93429783    -4857.0952      1897.5763    
      4600   9.4982641     -4857.7206      1.1041883     -4856.6164      1904.7409    
      4700   11.848773     -4857.3927      1.3774387     -4856.0153      1913.5654    
      4800   15.754136     -4857.2582      1.8314434     -4855.4268      1913.9283    
      4900   20.294853     -4857.3813      2.359309      -4855.022       1905.38      
      5000   20.945114     -4857.4609      2.4349028     -4855.026       1897.7714    
      5100   16.32293      -4857.3843      1.8975666     -4855.4867      1890.5609    
      5200   10.449734     -4857.1934      1.2147982     -4855.9786      1884.6151    
      5300   6.079074      -4856.9838      0.70670203    -4856.2771      1881.6167    
      5400   3.4346732     -4856.8027      0.39928623    -4856.4034      1881.4198    
      5500   1.9439665     -4856.6657      0.2259892     -4856.4398      1881.0907    
      5600   1.170571      -4856.5773      0.13608074    -4856.4412      1879.6405    
      5700   0.91287303    -4856.5375      0.10612294    -4856.4313      1879.2513    
      5800   1.1355688     -4856.5457      0.13201169    -4856.4137      1880.8384    
      5900   1.8602167     -4856.5965      0.21625315    -4856.3802      1882.1462    
      6000   3.0847681     -4856.6771      0.35860921    -4856.3185      1882.245     
      6100   4.6556686     -4856.7615      0.54122888    -4856.2203      1883.7313    
      6200   6.3260246     -4856.8251      0.73541043    -4856.0897      1887.8664    
      6300   7.757441      -4856.8455      0.90181486    -4855.9437      1891.5565    
      6400   8.7067893     -4856.8174      1.0121781     -4855.8053      1893.2605    
      6500   9.1600735     -4856.7569      1.0648731     -4855.6921      1896.094     
      6600   9.6398858     -4856.7308      1.1206521     -4855.6101      1900.3151    
      6700   10.59585      -4856.8122      1.2317845     -4855.5804      1904.1869    
      6800   12.770364     -4857.0779      1.4845751     -4855.5933      1901.2888    
      6900   14.591133     -4857.4278      1.6962424     -4855.7316      1895.3584    
      7000   13.435289     -4857.6764      1.5618738     -4856.1146      1893.4435    
      7100   9.8706401     -4857.8023      1.1474776     -4856.6548      1890.0871    
      7200   5.9248234     -4857.8408      0.68877015    -4857.1521      1886.0122    
      7300   3.2342682     -4857.8424      0.37598883    -4857.4664      1884.219     
      7400   1.9074668     -4857.838       0.22174605    -4857.6163      1884.4805    
      7500   1.3972118     -4857.8405      0.1624281     -4857.6781      1884.3462    
      7600   1.3335912     -4857.8554      0.1550321     -4857.7004      1883.412     
      7700   1.5857024     -4857.8902      0.18434042    -4857.7058      1883.3476    
      7800   2.1563099     -4857.9404      0.25067446    -4857.6897      1884.5629    
      7900   3.1182887     -4858.0149      0.36250602    -4857.6524      1885.2273    
      8000   4.6024933     -4858.12        0.53504717    -4857.585       1884.7695    
      8100   6.7368193     -4858.2622      0.78316597    -4857.479       1884.987     
      8200   9.4680411     -4858.4402      1.1006748     -4857.3395      1886.4714    
      8300   12.198406     -4858.6258      1.4180842     -4857.2077      1887.3923    
      8400   13.592216     -4858.7438      1.5801167     -4857.1637      1887.6287    
      8500   12.267126     -4858.6861      1.4260729     -4857.26        1890.7025    
      8600   8.4811102     -4858.4181      0.98594256    -4857.4322      1897.9003    
      8700   4.3069093     -4858.098       0.50068507    -4857.5973      1903.4403    
      8800   2.2625999     -4857.9178      0.26303084    -4857.6548      1904.4657    
      8900   2.6372492     -4857.9905      0.30658441    -4857.6839      1900.8551    
      9000   4.5765109     -4858.209       0.53202667    -4857.677       1896.5265    
      9100   6.7352815     -4858.4855      0.78298719    -4857.7026      1891.2476    
      9200   7.7178218     -4858.6351      0.89720907    -4857.7379      1886.4966    
      9300   7.1423588     -4858.6218      0.83031058    -4857.7915      1884.1746    
      9400   5.7679116     -4858.5185      0.67052891    -4857.8479      1883.9483    
      9500   4.3503727     -4858.3909      0.50573775    -4857.8852      1883.6781    
      9600   3.2495274     -4858.2718      0.37776273    -4857.894       1882.893     
      9700   2.5429542     -4858.1718      0.29562248    -4857.8762      1883.0512    
      9800   2.2126886     -4858.0912      0.25722858    -4857.8339      1884.2217    
      9900   2.2647808     -4858.0265      0.26328438    -4857.7632      1884.6692    
     10000   2.8024072     -4857.9732      0.3257843     -4857.6474      1884.0515    
     10100   4.0524453     -4857.9272      0.47110321    -4857.4561      1884.3569    
     10200   6.165992      -4857.8775      0.71680639    -4857.1607      1885.9962    
     10300   8.786863      -4857.8001      1.0214868     -4856.7786      1886.84      
     10400   10.984503     -4857.6696      1.2769659     -4856.3927      1886.2065    
     10500   11.606994     -4857.4674      1.3493315     -4856.1181      1890.3739    
     10600   9.9057205     -4857.1052      1.1515558     -4855.9536      1896.831     
     10700   9.7147218     -4856.9941      1.1293519     -4855.8648      1898.6947    
     10800   12.6934       -4857.2917      1.4756279     -4855.8161      1892.8928    
     10900   14.656728     -4857.5596      1.7038679     -4855.8557      1883.6161    
     11000   12.859209     -4857.6036      1.4949035     -4856.1087      1883.0729    
     11100   9.9445811     -4857.62        1.1560734     -4856.4639      1881.8866    
     11200   7.0504432     -4857.6338      0.81962525    -4856.8142      1880.2758    
     11300   4.817823      -4857.6555      0.56007959    -4857.0954      1880.4023    
     11400   3.3252044     -4857.6813      0.3865603     -4857.2947      1881.7699    
     11500   2.3809373     -4857.7027      0.27678776    -4857.4259      1882.588     
     11600   1.7870549     -4857.7159      0.20774797    -4857.5082      1883.0343    
     11700   1.4120848     -4857.7224      0.1641571     -4857.5582      1884.4425    
     11800   1.2169177     -4857.7299      0.14146861    -4857.5884      1886.4036    
     11900   1.2328194     -4857.7505      0.14331722    -4857.6072      1887.4985    
     12000   1.518103      -4857.7955      0.17648189    -4857.619       1887.6113    
     12100   2.1592265     -4857.87        0.25101351    -4857.619       1887.7998    
     12200   3.4027594     -4857.9751      0.3955762     -4857.5795      1888.1817    
     12300   5.8468466     -4858.1132      0.67970523    -4857.4335      1887.8369    
     12400   10.354478     -4858.2868      1.2037245     -4857.0831      1887.3355    
     12500   17.015861     -4858.4835      1.9781209     -4856.5054      1888.458     
     12600   22.70885      -4858.6223      2.63994       -4855.9824      1891.0625    
     12700   22.044589     -4858.5564      2.5627185     -4855.9937      1893.6582    
     12800   14.874327     -4858.252       1.7291642     -4856.5228      1898.0181    
     12900   4.6852274     -4857.4859      0.54466515    -4856.9412      1908.5188    
     13000   1.281142      -4857.1786      0.1489348     -4857.0297      1910.3135    
     13100   5.0175897     -4857.6844      0.58330279    -4857.1011      1904.7663    
     13200   9.6039393     -4858.3844      1.1164732     -4857.2679      1895.5827    
     13300   9.5193314     -4858.5845      1.1066374     -4857.4779      1886.9909    
     13400   7.7426941     -4858.645       0.90010052    -4857.7449      1884.9952    
     13500   5.6353794     -4858.6198      0.65512182    -4857.9647      1883.1988    
     13600   3.9335361     -4858.5709      0.45727984    -4858.1137      1881.8758    
     13700   2.7798006     -4858.526       0.32315624    -4858.2029      1881.6694    
     13800   2.0725069     -4858.4926      0.24093223    -4858.2517      1882.3393    
     13900   1.6777899     -4858.4703      0.19504575    -4858.2753      1882.8006    
     14000   1.5052682     -4858.4554      0.17498983    -4858.2804      1883.1208    
     14100   1.5457403     -4858.4452      0.17969477    -4858.2655      1884.1698    
     14200   1.9474924     -4858.4386      0.22639909    -4858.2122      1885.8731    
     14300   3.1914313     -4858.4308      0.37100897    -4858.0598      1887.4719    
     14400   6.1979103     -4858.398       0.72051693    -4857.6774      1889.1879    
     14500   10.653609     -4858.2649      1.238499      -4857.0264      1892.9917    
     14600   13.207958     -4857.9335      1.5354461     -4856.398       1902.0928    
     14700   10.883306     -4857.3387      1.2652017     -4856.0735      1922.851     
     14800   8.2178928     -4856.8732      0.95534312    -4855.9178      1971.9117    
     14900   11.83279      -4857.1796      1.3755807     -4855.804       1963.378     
     15000   19.54772      -4858.0391      2.2724536     -4855.7666      1914.3124    
     15100   20.255728     -4858.4743      2.3547606     -4856.1195      1895.5307    
     15200   14.030468     -4858.4674      1.6310642     -4856.8363      1887.6291    
     15300   7.982642      -4858.3408      0.92799485    -4857.4128      1884.8766    
     15400   4.304873      -4858.2096      0.50044834    -4857.7092      1883.992     
     15500   2.414626      -4858.1048      0.28070411    -4857.8241      1883.004     
     15600   1.504597      -4858.0386      0.17491179    -4857.8637      1882.1879    
     15700   1.1521128     -4858.0061      0.13393495    -4857.8722      1882.4724    
     15800   1.1906205     -4858.0037      0.13841153    -4857.8653      1883.2668    
     15900   1.5824263     -4858.0259      0.18395958    -4857.8419      1883.5387    
     16000   2.3419514     -4858.0621      0.27225558    -4857.7899      1883.8868    
     16100   3.4655031     -4858.0942      0.40287026    -4857.6913      1885.623     
     16200   4.7936996     -4858.0931      0.55727521    -4857.5359      1888.6924    
     16300   5.8679209     -4858.0251      0.68215514    -4857.343       1891.6755    
     16400   6.1285361     -4857.8745      0.71245208    -4857.162       1894.8198    
     16500   5.4979942     -4857.6701      0.63915058    -4857.031       1898.8969    
     16600   4.6784551     -4857.489       0.54387785    -4856.9451      1901.4914    
     16700   4.3490699     -4857.4032      0.50558629    -4856.8976      1902.9057    
     16800   5.1134893     -4857.426       0.59445127    -4856.8316      1900.8385    
     16900   7.1031399     -4857.5645      0.82575132    -4856.7388      1898.7187    
     17000   9.2982903     -4857.6858      1.0809411     -4856.6049      1894.7128    
     17100   10.766341     -4857.7616      1.2516043     -4856.51        1891.5777    
     17200   11.266626     -4857.7811      1.3097632     -4856.4714      1887.5628    
     17300   10.730767     -4857.7535      1.2474687     -4856.5061      1885.252     
     17400   9.4058989     -4857.6939      1.0934507     -4856.6005      1883.9381    
     17500   7.7578958     -4857.6257      0.90186773    -4856.7238      1881.9922    
     17600   6.1955818     -4857.5696      0.72024625    -4856.8493      1880.1352    
     17700   4.919772      -4857.5359      0.57193133    -4856.964       1880.1637    
     17800   3.9330384     -4857.5226      0.45722198    -4857.0654      1881.2304    
     17900   3.1507434     -4857.52        0.36627893    -4857.1537      1881.5879    
     18000   2.4907052     -4857.5175      0.28954845    -4857.228       1881.8762    
     18100   1.9428546     -4857.5112      0.22585994    -4857.2854      1883.4529    
     18200   1.5788061     -4857.5089      0.18353872    -4857.3254      1885.4459    
     18300   1.5423363     -4857.5306      0.17929905    -4857.3513      1886.0709    
     18400   1.9224679     -4857.5892      0.22348996    -4857.3657      1886.1769    
     18500   2.7965789     -4857.6871      0.32510675    -4857.362       1886.8933    
     18600   4.2409174     -4857.8118      0.4930134     -4857.3188      1887.8303    
     18700   6.2473845     -4857.926       0.72626839    -4857.1997      1887.7908    
     18800   8.747423      -4857.9843      1.0169018     -4856.9674      1887.9484    
     18900   11.643976     -4857.9673      1.3536307     -4856.6136      1890.1356    
     19000   14.722639     -4857.9033      1.7115302     -4856.1917      1893.5243    
     19100   17.415327     -4857.8566      2.0245595     -4855.832       1895.6653    
     19200   18.449593     -4857.8614      2.1447945     -4855.7166      1895.4373    
     19300   16.607919     -4857.8975      1.930697      -4855.9668      1894.1776    
     19400   12.19503      -4857.924       1.4176916     -4856.5063      1895.0816    
     19500   7.8930068     -4857.9558      0.91757461    -4857.0383      1891.7312    
     19600   4.9293806     -4857.9729      0.57304834    -4857.3999      1887.4466    
     19700   3.4201058     -4858.0178      0.39759274    -4857.6202      1886.454     
     19800   2.4332754     -4858.0359      0.28287214    -4857.753       1890.0459    
     19900   2.2418392     -4858.0672      0.26061738    -4857.8066      1889.6188    
     20000   3.0766266     -4858.1907      0.35766274    -4857.833       1887.4294    
     20100   4.0420645     -4858.2898      0.46989643    -4857.8199      1882.9298    
     20200   4.8147828     -4858.3544      0.55972617    -4857.7946      1883.3917    
     20300   5.5883832     -4858.3914      0.64965844    -4857.7417      1883.7383    
     20400   6.0444284     -4858.3684      0.70267442    -4857.6657      1884.6903    
     20500   5.7921267     -4858.2485      0.67334395    -4857.5752      1887.2948    
     20600   4.8264434     -4858.0408      0.56108173    -4857.4797      1890.5772    
     20700   3.8568169     -4857.8307      0.44836111    -4857.3824      1892.9708    
     20800   3.9208961     -4857.7263      0.45581041    -4857.2705      1893.7519    
     20900   5.9245509     -4857.7838      0.68873848    -4857.095       1893.4932    
     21000   10.435996     -4857.9911      1.2132012     -4856.7779      1892.2129    
     21100   16.098542     -4858.2133      1.8714811     -4856.3418      1890.0097    
     21200   18.385283     -4858.2005      2.1373184     -4856.0632      1889.3631    
     21300   15.534194     -4857.9327      1.8058748     -4856.1269      1891.5427    
     21400   11.158798     -4857.6367      1.297228      -4856.3395      1893.1326    
     21500   8.1423268     -4857.4404      0.94655846    -4856.4938      1891.8237    
     21600   6.842843      -4857.3509      0.79549139    -4856.5554      1889.2622    
     21700   6.6644738     -4857.3455      0.77475569    -4856.5707      1887.3909    
     21800   7.0355682     -4857.3869      0.81789601    -4856.569       1885.9744    
     21900   7.5093931     -4857.4322      0.8729789     -4856.5592      1883.6701    
     22000   7.8429087     -4857.4587      0.91175063    -4856.547       1881.6623    
     22100   7.9857666     -4857.4646      0.92835808    -4856.5363      1881.1731    
     22200   8.0569884     -4857.4661      0.93663773    -4856.5295      1881.5966    
     22300   8.0938108     -4857.4649      0.94091839    -4856.5239      1881.7909    
     22400   8.021488      -4857.4612      0.93251075    -4856.5287      1882.4922    
     22500   7.7946121     -4857.4451      0.90613606    -4856.539       1884.4416    
     22600   7.5023948     -4857.424       0.87216534    -4856.5519      1886.8634    
     22700   7.295252      -4857.4115      0.84808466    -4856.5634      1888.364     
     22800   7.3454718     -4857.4249      0.85392279    -4856.571       1889.633     
     22900   7.9008766     -4857.4939      0.91848949    -4856.5754      1891.3569    
     23000   8.9034343     -4857.6203      1.0350384     -4856.5853      1892.2787    
     23100   9.7061347     -4857.7507      1.1283536     -4856.6224      1891.7708    
     23200   9.1780085     -4857.7961      1.0669581     -4856.7291      1894.0369    
     23300   7.706257      -4857.746       0.89586464    -4856.8502      1895.9952    
     23400   6.9632918     -4857.7946      0.80949375    -4856.9851      1896.5526    
     23500   6.8575967     -4857.9399      0.79720653    -4857.1427      1894.1305    
     23600   6.0501301     -4857.9957      0.70333726    -4857.2924      1890.3598    
     23700   5.0464163     -4858.0413      0.58665393    -4857.4547      1888.9998    
     23800   4.1433679     -4858.0754      0.48167311    -4857.5938      1887.7837    
     23900   3.4392774     -4858.1045      0.39982147    -4857.7046      1886.1043    
     24000   2.9344247     -4858.1298      0.34113154    -4857.7887      1884.7725    
     24100   2.6232886     -4858.1551      0.30496148    -4857.8501      1884.1972    
     24200   2.4771606     -4858.1809      0.28797387    -4857.8929      1884.0599    
     24300   2.4451925     -4858.2029      0.28425752    -4857.9187      1884.0256    
     24400   2.5115733     -4858.2168      0.29197439    -4857.9249      1884.6043    
     24500   2.6880067     -4858.2161      0.31248506    -4857.9037      1886.1114    
     24600   3.1034281     -4858.1984      0.36077846    -4857.8377      1888.5536    
     24700   4.1292793     -4858.1693      0.48003529    -4857.6893      1891.9509    
     24800   6.5016054     -4858.1655      0.75582197    -4857.4097      1895.4438    
     24900   11.323541     -4858.169       1.3163797     -4856.8526      1900.0475    
     25000   19.284557     -4858.3218      2.2418605     -4856.08        1900.5834    
     25100   25.582205     -4858.4892      2.973972      -4855.5152      1897.4698    
     25200   24.098081     -4858.5648      2.8014403     -4855.7634      1893.3696    
     25300   16.782157     -4858.4816      1.9509525     -4856.5306      1890.4985    
     25400   9.6660595     -4858.3239      1.1236948     -4857.2002      1890.6098    
     25500   5.7964478     -4858.2129      0.67384628    -4857.5391      1888.9679    
     25600   4.2547371     -4858.1724      0.49461996    -4857.6777      1885.837     
     25700   3.6236132     -4858.1707      0.4212508     -4857.7494      1885.2121    
     25800   3.3811186     -4858.1846      0.39306042    -4857.7915      1887.9004    
     25900   3.737403      -4858.2048      0.43447905    -4857.7703      1883.8207    
     26000   4.1898219     -4858.2252      0.48707346    -4857.7382      1883.7059    
     26100   4.8414984     -4858.2413      0.56283189    -4857.6785      1883.9438    
     26200   5.7378195     -4858.2557      0.66703065    -4857.5886      1884.188     
     26300   6.8903586     -4858.2679      0.80101516    -4857.4669      1884.6417    
     26400   8.2114922     -4858.2717      0.95459904    -4857.3171      1885.7951    
     26500   9.4479397     -4858.2512      1.098338      -4857.1528      1887.5787    
     26600   9.978081      -4858.1576      1.1599678     -4856.9976      1889.567     
     26700   9.1378146     -4857.9315      1.0622855     -4856.8692      1892.1438    
     26800   7.3057756     -4857.6039      0.84930804    -4856.7546      1895.9655    
     26900   6.0012297     -4857.3356      0.69765251    -4856.638       1901.1273    
     27000   6.1025106     -4857.0847      0.70942657    -4856.3753      1914.1079    
     27100   8.1213414     -4856.7129      0.94411886    -4855.7687      1944.899     
     27200   15.723673     -4856.5321      1.827902      -4854.7042      1953.0992    
     27300   28.217139     -4856.7049      3.2802874     -4853.4247      1915.5462    
     27400   33.097585     -4856.908       3.847647      -4853.0603      1898.9098    
     27500   25.544502     -4857.0219      2.969589      -4854.0523      1889.5967    
     27600   14.593125     -4856.9081      1.6964741     -4855.2117      1885.3644    
     27700   7.6851861     -4856.7446      0.89341512    -4855.8512      1883.712     
     27800   4.2557555     -4856.6098      0.49473835    -4856.1151      1882.6694    
     27900   2.5823067     -4856.5151      0.30019726    -4856.2149      1882.0735    
     28000   1.7898188     -4856.4576      0.20806929    -4856.2496      1882.1604    
     28100   1.530061      -4856.4338      0.17787203    -4856.2559      1882.3703    
     28200   1.7095826     -4856.4421      0.1987417     -4856.2433      1882.2987    
     28300   2.4072964     -4856.4829      0.27985204    -4856.2031      1882.2459    
     28400   3.9012429     -4856.5586      0.4535257     -4856.1051      1882.7095    
     28500   6.696339      -4856.6691      0.77846007    -4855.8906      1883.5021    
     28600   11.201797     -4856.7987      1.3022267     -4855.4965      1884.2931    
     28700   16.517043     -4856.892       1.9201326     -4854.9719      1886.6336    
     28800   19.347303     -4856.8728      2.2491547     -4854.6236      1893.3941    
     28900   15.845175     -4856.4508      1.8420268     -4854.6087      1914.6943    
     29000   10.663592     -4856.0463      1.2396595     -4854.8067      1953.7607    
     29100   9.5359811     -4856.1649      1.108573      -4855.0563      1942.859     
     29200   9.9335445     -4856.5916      1.1547904     -4855.4368      1908.218     
     29300   7.7909004     -4856.8812      0.90570458    -4855.9755      1894.648     
     29400   4.1522428     -4856.9015      0.48270483    -4856.4188      1890.5159    
     29500   2.0513969     -4856.8976      0.23847816    -4856.6591      1888.5667    
     29600   1.1891281     -4856.8841      0.13823803    -4856.7459      1887.6584    
     29700   0.87393595    -4856.8738      0.10159645    -4856.7722      1887.09      
     29800   0.79869298    -4856.8697      0.092849331   -4856.7769      1886.308     
     29900   0.8733602     -4856.8724      0.10152951    -4856.7708      1885.444     
     30000   1.0801214     -4856.8803      0.12556583    -4856.7547      1884.8064    
     30100   1.4574736     -4856.893       0.16943362    -4856.7235      1884.2465    
     30200   2.114149      -4856.9127      0.24577318    -4856.6669      1883.6157    
     30300   3.2261057     -4856.9423      0.37503992    -4856.5673      1883.1049    
     30400   5.0341516     -4856.9872      0.58522814    -4856.402       1883.1742    
     30500   7.7082473     -4857.0529      0.89609602    -4856.1568      1883.7879    
     30600   11.035271     -4857.1396      1.2828678     -4855.8567      1884.5726    
     30700   14.185512     -4857.2414      1.6490883     -4855.5923      1885.9773    
     30800   16.002665     -4857.3516      1.8603353     -4855.4912      1888.2995    
     30900   15.931597     -4857.4824      1.8520735     -4855.6303      1890.1519    
     31000   14.386021     -4857.6508      1.6723979     -4855.9784      1890.5792    
     31100   12.209099     -4857.8503      1.4193272     -4856.4309      1890.0651    
     31200   10.04861      -4858.0451      1.168167      -4856.8769      1889.7387    
     31300   8.2088541     -4858.1945      0.95429236    -4857.2402      1889.587     
     31400   6.7835313     -4858.2806      0.78859631    -4857.492       1889.641     
     31500   5.7204962     -4858.3048      0.66501679    -4857.6398      1889.8818    
     31600   4.7868294     -4858.2861      0.55647654    -4857.7296      1893.5094    
     31700   4.882993      -4858.3161      0.56765572    -4857.7485      1893.9899    
     31800   6.0405974     -4858.4192      0.70222906    -4857.717       1890.7565    
     31900   7.3620094     -4858.5486      0.85584532    -4857.6928      1889.3938    
     32000   8.5681691     -4858.6634      0.9960633     -4857.6674      1888.1499    
     32100   9.0628221     -4858.7108      1.0535675     -4857.6573      1887.3131    
     32200   8.4966656     -4858.6563      0.98775091    -4857.6686      1886.7273    
     32300   6.0856206     -4858.4159      0.70746308    -4857.7084      1892.3129    
     32400   4.310845      -4858.2072      0.50114259    -4857.7061      1894.9561    
     32500   4.7570037     -4858.2285      0.55300926    -4857.6755      1894.5307    
     32600   6.589685      -4858.3625      0.76606138    -4857.5964      1890.7885    
     32700   7.8186413     -4858.3343      0.90892949    -4857.4254      1886.7381    
     32800   9.2516408     -4858.27        1.075518      -4857.1945      1885.8483    
     32900   11.300672     -4858.1417      1.3137211     -4856.8279      1886.0855    
     33000   14.31583      -4857.927       1.664238      -4856.2628      1886.6958    
     33100   18.147645     -4857.6083      2.1096926     -4855.4986      1887.291     
     33200   21.212033     -4857.1942      2.4659326     -4854.7283      1888.3612    
     33300   21.243799     -4856.7537      2.4696254     -4854.2841      1889.9525    
     33400   17.703131     -4856.3815      2.0580172     -4854.3234      1889.9064    
     33500   12.34315      -4856.1238      1.4349108     -4854.6889      1888.1043    
     33600   7.4045463     -4855.9659      0.86079029    -4855.1052      1886.6983    
     33700   4.0092687     -4855.867       0.46608387    -4855.401       1886.4104    
     33800   2.0775599     -4855.7982      0.24151964    -4855.5567      1885.9012    
     33900   1.0774507     -4855.7486      0.12525536    -4855.6234      1884.9214    
     34000   0.5958518     -4855.7174      0.06926872    -4855.6481      1884.5752    
     34100   0.43069012    -4855.7064      0.050068412   -4855.6563      1884.9355    
     34200   0.52460142    -4855.7185      0.06098575    -4855.6575      1885.019     
     34300   0.93912165    -4855.7583      0.10917439    -4855.6491      1884.5727    
     34400   1.9278619     -4855.8334      0.22411701    -4855.6093      1884.5005    
     34500   4.3013346     -4855.9581      0.50003699    -4855.4581      1885.2384    
     34600   10.424528     -4856.1602      1.211868      -4854.9484      1886.1578    
     34700   23.524346     -4856.4747      2.7347427     -4853.7399      1887.237     
     34800   36.815621     -4856.8826      4.2798746     -4852.6028      1889.0863    
     34900   35.132718     -4857.2751      4.0842343     -4853.1909      1890.1187    
     35000   24.054428     -4857.5696      2.7963656     -4854.7732      1889.4183    
     35100   16.129259     -4857.7611      1.875052      -4855.886       1888.6715    
     35200   12.05051      -4857.8594      1.400891      -4856.4585      1889.3447    
     35300   9.3565814     -4857.8668      1.0877175     -4856.7791      1891.1265    
     35400   6.6218783     -4857.771       0.7698039     -4857.0012      1895.794     
     35500   3.4314101     -4857.493       0.39890688    -4857.0941      1898.6049    
     35600   1.5859722     -4857.302       0.18437179    -4857.1177      1899.7428    
     35700   2.2236722     -4857.3724      0.25850543    -4857.1139      1898.6607    
     35800   4.884566      -4857.6373      0.56783857    -4857.0695      1895.0129    
     35900   7.9388687     -4857.846       0.92290612    -4856.9231      1888.0718    
     36000   10.347602     -4857.938       1.2029253     -4856.7351      1885.4465    
     36100   12.250384     -4857.9575      1.4241267     -4856.5334      1884.4999    
     36200   13.196791     -4857.9227      1.534148      -4856.3886      1883.234     
     36300   13.083734     -4857.8796      1.521005      -4856.3586      1880.6008    
     36400   12.009583     -4857.8608      1.3961331     -4856.4647      1879.3536    
     36500   10.232944     -4857.8768      1.189596      -4856.6872      1880.4832    
     36600   8.0785237     -4857.9135      0.93914124    -4856.9744      1881.2624    
     36700   5.9206152     -4857.948       0.68828094    -4857.2597      1881.0558    
     36800   4.0596633     -4857.9602      0.47194233    -4857.4883      1882.1592    
     36900   2.6566805     -4857.9477      0.30884333    -4857.6389      1884.575     
     37000   1.7702603     -4857.9303      0.20579558    -4857.7245      1886.1096    
     37100   1.3413269     -4857.9264      0.15593139    -4857.7705      1886.4723    
     37200   1.2754452     -4857.9442      0.14827253    -4857.7959      1887.197     
     37300   1.5074644     -4857.9838      0.17524513    -4857.8086      1888.4656    
     37400   1.9809139     -4858.0358      0.23028439    -4857.8055      1889.0588    
     37500   2.7198058     -4858.0851      0.31618175    -4857.7689      1888.5581    
     37600   4.0495061     -4858.1192      0.47076153    -4857.6485      1888.2921    
     37700   6.6387222     -4858.108       0.77176202    -4857.3362      1894.0686    
     37800   12.020538     -4857.9995      1.3974066     -4856.6021      1895.6514    
     37900   21.545001     -4857.9903      2.5046406     -4855.4857      1893.6882    
     38000   29.829408     -4858.1685      3.4677162     -4854.7007      1890.6996    
     38100   26.791389     -4858.1245      3.1145416     -4855.01        1888.9162    
     38200   15.627288     -4857.7093      1.8166971     -4855.8926      1891.2598    
     38300   5.439184      -4856.9964      0.6323138     -4856.3641      1893.6028    
     38400   1.652714      -4856.6586      0.19213064    -4856.4665      1896.508     
     38500   3.8331674     -4856.9473      0.44561182    -4856.5017      1894.7383    
     38600   7.9327093     -4857.4612      0.92219009    -4856.539       1889.373     
     38700   9.9508958     -4857.731       1.1568075     -4856.5742      1883.5467    
     38800   10.018343     -4857.8323      1.1646483     -4856.6676      1882.2199    
     38900   8.9374556     -4857.8306      1.0389934     -4856.7916      1881.6322    
     39000   7.6366483     -4857.8082      0.88777252    -4856.9204      1880.3404    
     39100   6.5976848     -4857.8058      0.76699136    -4857.0388      1879.7461    
     39200   5.9158873     -4857.8339      0.68773132    -4857.1461      1880.9912    
     39300   5.4750559     -4857.8877      0.63648397    -4857.2512      1882.3318    
     39400   5.0702694     -4857.9584      0.58942689    -4857.3689      1882.4794    
     39500   4.4550318     -4858.0341      0.51790454    -4857.5162      1882.8769    
     39600   3.5387281     -4858.1032      0.41138278    -4857.6918      1884.4794    
     39700   2.552403      -4858.1559      0.29672092    -4857.8592      1885.8204    
     39800   1.796787      -4858.1911      0.20887935    -4857.9822      1886.1058    
     39900   1.3446761     -4858.2148      0.15632074    -4858.0585      1886.4458    
     40000   1.1553783     -4858.2376      0.13431456    -4858.1033      1887.4026    
     40100   1.2198951     -4858.2719      0.14181475    -4858.1301      1887.8884    
     40200   1.5509151     -4858.3247      0.18029635    -4858.1444      1887.5814    
     40300   2.210474      -4858.3996      0.25697112    -4858.1426      1887.0379    
     40400   3.3305579     -4858.4968      0.38718266    -4858.1096      1887.1701    
     40500   5.0922046     -4858.6038      0.5919769     -4858.0118      1887.1759    
     40600   7.8606155     -4858.7016      0.91380906    -4857.7878      1886.795     
     40700   12.075717     -4858.7539      1.4038213     -4857.3501      1887.4237    
     40800   17.204023     -4858.6698      1.999995      -4856.6698      1890.5574    
     40900   19.687648     -4858.2714      2.2887204     -4855.9827      1897.4791    
     41000   13.376931     -4857.1384      1.5550895     -4855.5833      1904.1345    
     41100   7.2697498     -4856.2572      0.84511999    -4855.4121      1905.5588    
     41200   10.682753     -4856.4599      1.241887      -4855.218       1903.5046    
     41300   21.058777     -4857.2448      2.4481164     -4854.7967      1899.9733    
     41400   28.116802     -4857.7248      3.268623      -4854.4562      1891.9326    
     41500   22.767016     -4857.7624      2.6467018     -4855.1157      1887.4754    
     41600   11.704882     -4857.5916      1.3607112     -4856.2309      1885.5419    
     41700   5.0112578     -4857.4492      0.5825667     -4856.8667      1884.3831    
     41800   2.3807402     -4857.3666      0.27676484    -4857.0899      1882.9173    
     41900   1.4228201     -4857.3269      0.1654051     -4857.1615      1882.1444    
     42000   1.1381666     -4857.3183      0.13231368    -4857.1859      1882.4827    
     42100   1.2262069     -4857.3341      0.1425485     -4857.1915      1882.9594    
     42200   1.6193146     -4857.3737      0.18824789    -4857.1854      1882.6881    
     42300   2.3391728     -4857.4204      0.27193257    -4857.1484      1882.9783    
     42400   3.4763279     -4857.4671      0.40412866    -4857.063       1884.9409    
     42500   5.0910469     -4857.4893      0.59184231    -4856.8974      1887.8103    
     42600   7.0436018     -4857.4466      0.81882992    -4856.6278      1891.1115    
     42700   8.7568504     -4857.2916      1.0179978     -4856.2736      1896.906     
     42800   8.9695896     -4857.0106      1.0427291     -4855.9679      1904.4865    
     42900   8.4061023     -4856.6612      0.97722278    -4855.684       1914.9416    
     43000   9.1396152     -4856.5434      1.0624948     -4855.4809      1919.0919    
     43100   12.136114     -4856.7483      1.4108426     -4855.3375      1913.3324    
     43200   15.93854      -4856.9954      1.8528807     -4855.1425      1905.1762    
     43300   17.016287     -4857.2527      1.9781704     -4855.2746      1903.9327    
     43400   15.395791     -4857.4041      1.7897853     -4855.6143      1904.2632    
     43500   13.53045      -4857.5864      1.5729363     -4856.0135      1900.7858    
     43600   11.71708      -4857.7258      1.3621292     -4856.3637      1896.5462    
     43700   9.3651735     -4857.6639      1.0887163     -4856.5752      1893.2878    
     43800   7.6220501     -4857.607       0.88607546    -4856.7209      1889.8239    
     43900   6.2995188     -4857.5336      0.73232909    -4856.8013      1886.9691    
     44000   5.2353652     -4857.4469      0.60861954    -4856.8383      1886.1916    
     44100   4.3631512     -4857.3507      0.50722327    -4856.8435      1885.2161    
     44200   3.7337286     -4857.2571      0.4340519     -4856.8231      1882.8726    
     44300   3.3954004     -4857.1739      0.3947207     -4856.7792      1881.1182    
     44400   3.4548683     -4857.1094      0.40163394    -4856.7077      1881.4138    
     44500   4.0929081     -4857.0687      0.47580709    -4856.5929      1881.4274    
     44600   5.6966753     -4857.0606      0.66224757    -4856.3983      1879.4522    
     44700   8.8820095     -4857.0972      1.0325477     -4856.0646      1878.1111    
     44800   14.113354     -4857.1992      1.6406999     -4855.5585      1879.7394    
     44900   20.174694     -4857.372       2.3453403     -4855.0267      1881.31      
     45000   23.221877     -4857.5664      2.6995801     -4854.8668      1880.6648    
     45100   20.039434     -4857.6556      2.3296161     -4855.326       1881.992     
     45200   13.051746     -4857.6166      1.5172863     -4856.0993      1888.2713    
     45300   6.3221651     -4857.3626      0.73496175    -4856.6277      1894.5066    
     45400   3.8742243     -4857.3099      0.45038475    -4856.8595      1895.6951    
     45500   5.0319708     -4857.5724      0.58497462    -4856.9874      1893.4765    
     45600   7.0890007     -4857.8992      0.82410761    -4857.0751      1891.5086    
     45700   7.714328      -4857.994       0.89680291    -4857.0972      1889.789     
     45800   8.0130595     -4858.0574      0.93153092    -4857.1259      1888.2381    
     45900   8.1438513     -4858.0965      0.94673567    -4857.1497      1887.0167    
     46000   8.3471084     -4858.1463      0.97036465    -4857.1759      1887.4511    
     46100   8.7142769     -4858.2242      1.0130486     -4857.2112      1887.0005    
     46200   9.043882      -4858.3163      1.0513657     -4857.2649      1885.0038    
     46300   8.8107905     -4858.3691      1.0242684     -4857.3448      1884.6954    
     46400   7.4952282     -4858.3134      0.87133221    -4857.442       1887.402     
     46500   5.1816128     -4858.1265      0.60237073    -4857.5242      1890.0798    
     46600   2.9106783     -4857.9034      0.33837099    -4857.565       1891.0816    
     46700   1.5939041     -4857.7565      0.18529388    -4857.5712      1891.8481    
     46800   1.4533177     -4857.7261      0.1689505     -4857.5571      1893.1118    
     46900   2.538794      -4857.8         0.29513884    -4857.5049      1892.1383    
     47000   5.1301469     -4857.9281      0.59638774    -4857.3317      1888.6735    
     47100   9.8111861     -4858.0291      1.140566      -4856.8886      1885.8305    
     47200   15.955854     -4857.9884      1.8548935     -4856.1335      1885.8477    
     47300   19.791955     -4857.7287      2.3008463     -4855.4278      1889.6337    
     47400   20.015171     -4857.4542      2.3267954     -4855.1274      1886.3213    
     47500   17.036886     -4857.2352      1.9805651     -4855.2547      1880.9162    
     47600   12.676768     -4857.1001      1.4736945     -4855.6264      1882.1824    
     47700   8.7593821     -4857.0101      1.0182921     -4855.9918      1882.1934    
     47800   5.8006601     -4856.9264      0.67433598    -4856.2521      1880.9079    
     47900   3.7661855     -4856.8403      0.43782507    -4856.4025      1881.5842    
     48000   2.5262996     -4856.769       0.29368636    -4856.4753      1883.819     
     48100   1.8621658     -4856.7512      0.21647974    -4856.5348      1887.2457    
     48200   2.2249429     -4856.7978      0.25865315    -4856.5392      1886.609     
     48300   4.2016542     -4857.0002      0.48844899    -4856.5118      1886.0016    
     48400   7.39334       -4857.224       0.85948754    -4856.3645      1885.0423    
     48500   12.639924     -4857.4542      1.4694113     -4855.9848      1885.9341    
     48600   24.084523     -4857.6348      2.7998641     -4854.8349      1886.7534    
     48700   41.689318     -4857.6402      4.8464496     -4852.7937      1892.6157    
     48800   43.158958     -4857.3321      5.0172976     -4852.3148      1901.4337    
     48900   24.734443     -4857.0915      2.8754184     -4854.2161      1908.2049    
     49000   10.752724     -4856.8948      1.2500213     -4855.6448      1918.3966    
     49100   7.8685929     -4857.1817      0.91473645    -4856.2669      1911.2002    
     49200   8.0489273     -4857.5653      0.93570061    -4856.6296      1900.1487    
     49300   8.0233682     -4857.7947      0.93272933    -4856.862       1895.1708    
     49400   8.0536077     -4858.0347      0.93624471    -4857.0985      1891.0754    
     49500   7.3061229     -4858.1522      0.84934842    -4857.3028      1889.1295    
     49600   5.9436985     -4858.1524      0.69096442    -4857.4614      1888.9594    
     49700   4.6690454     -4858.1105      0.54278396    -4857.5677      1887.5777    
     49800   3.8079871     -4858.0726      0.44268456    -4857.6299      1885.0422    
     49900   3.38537       -4858.0526      0.39355465    -4857.659       1883.7586    
     50000   3.3667339     -4858.0519      0.39138818    -4857.6605      1883.6598    
     50100   3.7851769     -4858.0708      0.44003284    -4857.6308      1882.6342    
     50200   4.8155164     -4858.1119      0.55981145    -4857.5521      1880.7663    
     50300   6.8233677     -4858.1762      0.79322736    -4857.3829      1880.5767    
     50400   10.316981     -4858.252       1.1993654     -4857.0526      1882.5201    
     50500   15.248499     -4858.2849      1.7726623     -4856.5122      1884.2221    
     50600   17.310693     -4857.943       2.0123956     -4855.9306      1892.9568    
     50700   10.046476     -4856.7504      1.1679188     -4855.5825      1907.459     
     50800   10.405204     -4856.5928      1.2096215     -4855.3832      1912.305     
     50900   25.012335     -4857.9276      2.9077237     -4855.0198      1899.6538    
     51000   26.859665     -4858.2961      3.1224788     -4855.1736      1890.7484    
     51100   16.503099     -4858.166       1.9185115     -4856.2475      1892.4275    
     51200   7.2784395     -4858.0333      0.84613018    -4857.1872      1894.2028    
     51300   3.4633232     -4857.9938      0.40261683    -4857.5912      1893.4224    
     51400   2.4207886     -4858.0183      0.28142053    -4857.7369      1891.4062    
     51500   2.3986139     -4858.0772      0.27884268    -4857.7984      1890.3034    
     51600   2.7571774     -4858.1443      0.32052626    -4857.8238      1889.7386    
     51700   3.2396613     -4858.1988      0.37661578    -4857.8222      1888.1901    
     51800   3.6997007     -4858.223       0.43009609    -4857.7929      1885.8418    
     51900   4.1739607     -4858.2177      0.48522957    -4857.7325      1884.9523    
     52000   4.765632      -4858.1887      0.55401231    -4857.6347      1885.2473    
     52100   5.561742      -4858.1359      0.64656136    -4857.4894      1884.5992    
     52200   6.682342      -4858.06        0.77683289    -4857.2831      1883.3468    
     52300   8.2517923     -4857.9623      0.95928399    -4857.003       1883.7643    
     52400   10.318325     -4857.8474      1.1995217     -4856.6479      1885.5916    
     52500   12.900541     -4857.7445      1.4997085     -4856.2448      1885.7003    
     52600   15.821712     -4857.7044      1.8392992     -4855.8651      1884.6947    
     52700   18.069564     -4857.744       2.1006156     -4855.6434      1885.7242    
     52800   17.799972     -4857.8151      2.0692751     -4855.7458      1887.8696    
     52900   13.404791     -4857.8292      1.5583283     -4856.2709      1892.8415    
     53000   7.2419953     -4857.7732      0.84189348    -4856.9313      1893.1503    
     53100   3.481819      -4857.8223      0.40476701    -4857.4175      1892.9068    
     53200   2.0859892     -4857.8925      0.24249957    -4857.65        1892.5216    
     53300   1.489144      -4857.8821      0.17311536    -4857.709       1888.7787    
     53400   1.2527646     -4857.8853      0.14563587    -4857.7397      1888.0407    
     53500   1.2669067     -4857.8933      0.14727992    -4857.746       1887.6097    
     53600   1.4971874     -4857.9103      0.17405042    -4857.7362      1887.9752    
     53700   2.0057529     -4857.9394      0.23317196    -4857.7062      1887.7561    
     53800   2.9384305     -4857.9827      0.34159722    -4857.6411      1886.0671    
     53900   4.4218112     -4858.0299      0.51404259    -4857.5159      1884.5273    
     54000   6.5579745     -4858.0657      0.76237498    -4857.3033      1884.4147    
     54100   9.1444679     -4858.0622      1.0630589     -4856.9991      1884.1447    
     54200   11.514935     -4857.9924      1.3386296     -4856.6537      1883.1784    
     54300   12.947975     -4857.8649      1.5052227     -4856.3597      1883.9127    
     54400   13.327386     -4857.7383      1.5493298     -4856.189       1886.9771    
     54500   13.032379     -4857.675       1.5150348     -4856.1599      1888.9007    
     54600   12.330066     -4857.6958      1.4333898     -4856.2624      1888.3481    
     54700   11.121628     -4857.7746      1.2929069     -4856.4817      1888.1695    
     54800   9.1611167     -4857.8628      1.0649944     -4856.7978      1889.2978    
     54900   6.4672809     -4857.9197      0.7518317     -4857.1679      1889.4529    
     55000   3.7581775     -4857.9443      0.43689411    -4857.5074      1888.2774    
     55100   1.9185356     -4857.9526      0.22303282    -4857.7295      1887.8756    
     55200   1.0472413     -4857.9552      0.12174347    -4857.8334      1888.2116    
     55300   0.71105642    -4857.9565      0.082661441   -4857.8738      1888.1075    
     55400   0.60399397    -4857.9579      0.070215261   -4857.8877      1887.1843    
     55500   0.58450173    -4857.9575      0.067949256   -4857.8896      1886.7142    
     55600   0.59521017    -4857.9533      0.06919413    -4857.8841      1886.8715    
     55700   0.61361168    -4857.9444      0.071333335   -4857.8731      1886.6304    
     55800   0.45340017    -4857.946       0.052708491   -4857.8933      1889.5094    
     55900   0.40920903    -4857.9271      0.047571201   -4857.8796      1890.1904    
     56000   0.65059846    -4857.9354      0.075633107   -4857.8597      1889.9025    
     56100   1.0596974     -4857.9105      0.12319151    -4857.7873      1885.0431    
     56200   1.5802502     -4857.9136      0.1837066     -4857.7299      1884.8348    
     56300   2.3226245     -4857.9178      0.2700088     -4857.6478      1885.3018    
     56400   3.2391894     -4857.9153      0.37656092    -4857.5388      1885.6559    
     56500   4.2223332     -4857.8962      0.49085296    -4857.4053      1885.7547    
     56600   5.1653469     -4857.853       0.6004798     -4857.2526      1886.2815    
     56700   5.9869171     -4857.7831      0.69598865    -4857.0871      1887.5465    
     56800   6.8077683     -4857.705       0.7914139     -4856.9136      1887.9878    
     56900   7.8615826     -4857.6466      0.91392149    -4856.7327      1887.3616    
     57000   9.1591483     -4857.6132      1.0647656     -4856.5484      1886.8594    
     57100   10.317804     -4857.5776      1.1994612     -4856.3782      1887.3029    
     57200   10.684836     -4857.4918      1.2421291     -4856.2497      1888.009     
     57300   10.047205     -4857.3462      1.1680036     -4856.1782      1889.1328    
     57400   8.9261853     -4857.1887      1.0376833     -4856.151       1891.4942    
     57500   8.1245465     -4857.1249      0.94449147    -4856.1804      1892.5983    
     57600   8.2521822     -4857.1087      0.95932931    -4856.1493      1891.9269    
     57700   9.1108612     -4857.2243      1.0591521     -4856.1651      1888.6058    
     57800   10.069813     -4857.3987      1.1706318     -4856.2281      1886.0325    
     57900   10.02764      -4857.559       1.1657292     -4856.3933      1884.5461    
     58000   8.5459163     -4857.6619      0.99347638    -4856.6685      1883.213     
     58100   6.4204665     -4857.718       0.74638945    -4856.9716      1882.1941    
     58200   4.6018785     -4857.7523      0.5349757     -4857.2174      1882.3306    
     58300   3.4146895     -4857.7815      0.39696309    -4857.3845      1883.0252    
     58400   2.7737886     -4857.8136      0.32245734    -4857.4911      1883.3604    
     58500   2.5252481     -4857.8524      0.29356411    -4857.5588      1883.5989    
     58600   2.57504       -4857.9002      0.2993525     -4857.6008      1884.3644    
     58700   2.8948389     -4857.9581      0.33652963    -4857.6216      1885.2958    
     58800   3.5186733     -4858.0272      0.40905137    -4857.6181      1885.9619    
     58900   4.5472383     -4858.1071      0.52862369    -4857.5784      1886.4007    
     59000   6.1949674     -4858.1976      0.72017482    -4857.4775      1887.255     
     59100   8.8265785     -4858.2979      1.0261038     -4857.2718      1888.3757    
     59200   12.884112     -4858.4082      1.4977986     -4856.9104      1889.1059    
     59300   18.182892     -4858.5222      2.1137902     -4856.4084      1889.6771    
     59400   22.314826     -4858.5961      2.594134      -4856.0019      1891.3084    
     59500   20.833373     -4858.5137      2.4219128     -4856.0918      1893.4566    
     59600   9.3117087     -4857.6943      1.082501      -4856.6118      1907.9194    
     59700   0.84592379    -4856.8967      0.098339987   -4856.7983      1916.8498    
     59800   5.8525113     -4857.6079      0.68036376    -4856.9275      1908.5707    
     59900   9.6733919     -4858.463       1.1245472     -4857.3384      1895.8573    
     60000   7.4744347     -4858.662       0.86891494    -4857.793       1888.0767    
     60100   5.0793641     -4858.6958      0.59048416    -4858.1053      1885.6776    
     60200   3.4844324     -4858.6766      0.40507082    -4858.2716      1884.2883    
     60300   2.4975702     -4858.6375      0.29034651    -4858.3471      1883.762     
     60400   1.9130104     -4858.5963      0.22239051    -4858.3739      1883.3555    
     60500   1.598313      -4858.5602      0.18580643    -4858.3744      1883.0255    
     60600   1.4870196     -4858.531       0.17286839    -4858.3581      1883.2259    
     60700   1.5499511     -4858.5071      0.18018428    -4858.3269      1883.9117    
     60800   1.7725588     -4858.4838      0.20606278    -4858.2777      1884.5412    
     60900   2.1210415     -4858.453       0.24657446    -4858.2065      1885.29      
     61000   2.5045132     -4858.4063      0.29115365    -4858.1152      1886.4875    
     61100   2.7470676     -4858.3375      0.31935099    -4858.0182      1888.5453    
     61200   2.6749015     -4858.2468      0.31096155    -4857.9358      1890.2539    
     61300   2.3835507     -4858.1512      0.27709157    -4857.8741      1891.2374    
     61400   1.9262048     -4858.0748      0.22392438    -4857.8509      1895.2178    
     61500   2.0456324     -4858.0414      0.23780802    -4857.8036      1896.1651    
     61600   3.1804527     -4858.1         0.36973269    -4857.7303      1894.8408    
     61700   4.8090704     -4858.134       0.55906209    -4857.5749      1890.5879    
     61800   6.9570893     -4858.1844      0.8087727     -4857.3756      1887.6443    
     61900   9.2231279     -4858.1856      1.0722033     -4857.1134      1886.3648    
     62000   10.973517     -4858.1098      1.2756889     -4856.8342      1885.0447    
     62100   11.673557     -4857.9573      1.3570696     -4856.6003      1882.0373    
     62200   11.329357     -4857.7652      1.3170558     -4856.4481      1879.7347    
     62300   10.387485     -4857.5811      1.2075616     -4856.3736      1880.1468    
     62400   9.3414518     -4857.4377      1.0859586     -4856.3517      1880.6484    
     62500   8.5454215     -4857.3532      0.99341885    -4856.3598      1879.2       
     62600   8.1198119     -4857.3306      0.94394106    -4856.3866      1878.4107    
     62700   7.993261      -4857.3622      0.92922932    -4856.433       1880.2263    
     62800   7.8709492     -4857.4247      0.91501037    -4856.5097      1882.0739    
     62900   7.3877646     -4857.4864      0.8588394     -4856.6275      1882.2348    
     63000   6.3493425     -4857.517       0.73812117    -4856.7788      1883.6903    
     63100   4.9080524     -4857.5014      0.5705689     -4856.9308      1887.8594    
     63200   3.469314      -4857.4521      0.40331328    -4857.0488      1891.9496    
     63300   2.4759498     -4857.4107      0.28783311    -4857.1229      1893.4355    
     63400   2.1852926     -4857.4199      0.25404374    -4857.1658      1894.0027    
     63500   2.6960114     -4857.5044      0.31341562    -4857.191       1894.5296    
     63600   3.923059      -4857.6544      0.45606186    -4857.1983      1893.4298    
     63700   5.5547415     -4857.8203      0.64574754    -4857.1746      1891.0017    
     63800   7.1472962     -4857.9377      0.83088456    -4857.1068      1890.192     
     63900   8.39063       -4857.969       0.9754241     -4856.9936      1893.8859    
     64000   8.6366825     -4857.8752      1.0040281     -4856.8712      1898.6162    
     64100   8.8826887     -4857.7313      1.0326267     -4856.6987      1902.9897    
     64200   10.860803     -4857.742       1.2625856     -4856.4794      1901.2503    
     64300   14.715986     -4857.9138      1.7107568     -4856.2031      1895.6839    
     64400   17.599289     -4858.0018      2.0459454     -4855.9558      1890.9277    
     64500   17.456023     -4858.0508      2.0292904     -4856.0215      1885.4257    
     64600   13.853145     -4858.0303      1.6104502     -4856.4199      1882.397     
     64700   8.9477823     -4857.9737      1.0401939     -4856.9335      1882.3165    
     64800   5.1708654     -4857.9232      0.60112133    -4857.3221      1882.1211    
     64900   3.106864      -4857.9019      0.36117789    -4857.5407      1880.8726    
     65000   2.2234846     -4857.9114      0.25848363    -4857.653       1880.6766    
     65100   2.0119869     -4857.9476      0.23389668    -4857.7137      1882.0641    
     65200   2.207866      -4858.0044      0.25666793    -4857.7477      1883.1578    
     65300   2.7154548     -4858.0762      0.31567594    -4857.7606      1883.2918    
     65400   3.5260663     -4858.1575      0.40991082    -4857.7476      1884.1475    
     65500   4.728085      -4858.2452      0.54964741    -4857.6956      1886.4434    
     65600   6.5556512     -4858.3401      0.76210488    -4857.578       1888.4899    
     65700   9.4812116     -4858.4444      1.1022059     -4857.3422      1889.4158    
     65800   14.265608     -4858.548       1.6583996     -4856.8896      1890.7843    
     65900   21.26895      -4858.5912      2.4725493     -4856.1187      1893.7567    
     66000   27.246607     -4858.399       3.1674614     -4855.2315      1898.1643    
     66100   22.50757      -4857.5452      2.6165409     -4854.9286      1912.0915    
     66200   11.03859      -4856.4873      1.2832537     -4855.204       1924.6288    
     66300   8.4403958     -4856.4777      0.98120945    -4855.4965      1925.4546    
     66400   9.6484646     -4857.0316      1.1216494     -4855.91        1914.7724    
     66500   8.1304267     -4857.3044      0.94517504    -4856.3592      1902.2852    
     66600   7.063937      -4857.61        0.82119392    -4856.7889      1896.0034    
     66700   6.7820822     -4857.9329      0.78842786    -4857.1445      1891.0792    
     66800   6.1801843     -4858.1398      0.71845626    -4857.4214      1886.5895    
     66900   5.1004271     -4858.2016      0.59293277    -4857.6087      1882.8875    
     67000   3.973672      -4858.1781      0.46194569    -4857.7161      1880.9921    
     67100   3.1224669     -4858.1301      0.36299174    -4857.7671      1880.6368    
     67200   2.6534908     -4858.0903      0.30847254    -4857.7818      1880.4427    
     67300   2.5882112     -4858.071       0.30088367    -4857.7702      1880.1495    
     67400   2.9388873     -4858.0714      0.34165032    -4857.7297      1880.8382    
     67500   3.7558182     -4858.0791      0.43661984    -4857.6425      1882.8303    
     67600   5.1550764     -4858.0672      0.59928584    -4857.4679      1885.5366    
     67700   7.2926214     -4857.9869      0.84777885    -4857.1391      1889.2752    
     67800   10.202689     -4857.7826      1.1860788     -4856.5965      1895.5033    
     67900   13.452843     -4857.4953      1.5639144     -4855.9314      1903.306     
     68000   16.35196      -4857.1923      1.9009414     -4855.2913      1908.8909    
     68100   17.906782     -4857.0484      2.0816919     -4854.9667      1912.1877    
     68200   18.558788     -4857.1066      2.1574886     -4854.9491      1910.9067    
     68300   19.330836     -4857.5371      2.2472404     -4855.2899      1906.6089    
     68400   18.82961      -4858.0104      2.1889721     -4855.8214      1897.7409    
     68500   16.332036     -4858.3067      1.8986252     -4856.4081      1890.821     
     68600   12.765105     -4858.3769      1.4839637     -4856.8929      1886.8298    
     68700   9.299855      -4858.3101      1.081123      -4857.229       1884.928     
     68800   6.5553736     -4858.1957      0.76207261    -4857.4337      1882.7535    
     68900   4.6549473     -4858.0857      0.54114503    -4857.5446      1880.7926    
     69000   3.5039606     -4858.0035      0.407341      -4857.5962      1880.7052    
     69100   2.9669934     -4857.9559      0.34491771    -4857.611       1881.6052    
     69200   2.966598      -4857.9431      0.34487174    -4857.5982      1881.6405    
     69300   3.5084946     -4857.9607      0.40786808    -4857.5528      1881.4983    
     69400   4.7153303     -4858.0009      0.54816466    -4857.4527      1883.062     
     69500   6.8288151     -4858.0483      0.79386063    -4857.2545      1886.1173    
     69600   10.012889     -4858.0678      1.1640143     -4856.9038      1889.2537    
     69700   13.654828     -4857.9834      1.5873955     -4856.396       1894.3002    
     69800   15.124599     -4857.65        1.7582587     -4855.8918      1905.3631    
     69900   11.827701     -4856.9074      1.3749891     -4855.5325      1926.6108    
     70000   8.1103829     -4856.2642      0.94284493    -4855.3214      1944.0968    
     70100   8.7077412     -4856.1639      1.0122888     -4855.1516      1935.8258    
     70200   14.449206     -4856.4356      1.6797432     -4854.7559      1922.0198    
     70300   23.2895       -4856.855       2.7074415     -4854.1476      1909.602     
     70400   29.493175     -4857.1431      3.4286286     -4853.7145      1898.7258    
     70500   23.145995     -4857.0698      2.6907587     -4854.3791      1888.8209    
     70600   10.959539     -4856.8134      1.2740638     -4855.5393      1884.842     
     70700   3.9840877     -4856.6014      0.46315654    -4856.1383      1883.6049    
     70800   1.4362587     -4856.4716      0.16696737    -4856.3046      1881.8102    
     70900   0.56115006    -4856.4058      0.065234588   -4856.3406      1880.4299    
     71000   0.38637392    -4856.3929      0.044916583   -4856.348       1880.8053    
     71100   0.69788802    -4856.4295      0.081130594   -4856.3484      1881.5765    
     71200   1.578415      -4856.5186      0.18349325    -4856.3351      1881.0905    
     71300   3.3251287     -4856.6663      0.38655151    -4856.2797      1880.546     
     71400   6.4870788     -4856.8821      0.75413324    -4856.1279      1881.9627    
     71500   11.582985     -4857.1691      1.3465404     -4855.8225      1884.4612    
     71600   17.967566     -4857.5068      2.0887581     -4855.4181      1886.0374    
     71700   22.325058     -4857.8245      2.5953236     -4855.2292      1887.7993    
     71800   20.709791     -4858.0246      2.4075462     -4855.6171      1891.4652    
     71900   14.173126     -4858.0834      1.6476485     -4856.4357      1894.3009    
     72000   7.7324626     -4858.0854      0.89891108    -4857.1865      1897.6602    
     72100   3.9842609     -4858.0196      0.46317668    -4857.5564      1899.2397    
     72200   3.4501745     -4858.1213      0.40108828    -4857.7202      1898.4715    
     72300   4.7424657     -4858.3706      0.55131918    -4857.8192      1895.2633    
     72400   6.0140801     -4858.5552      0.69914638    -4857.856       1889.161     
     72500   6.7455695     -4858.6714      0.78418319    -4857.8873      1887.196     
     72600   7.1118674     -4858.7272      0.82676591    -4857.9005      1885.9313    
     72700   7.0882361     -4858.7277      0.82401873    -4857.9037      1885.2297    
     72800   6.7174778     -4858.6796      0.78091749    -4857.8987      1885.1018    
     72900   6.103866      -4858.5923      0.70958414    -4857.8827      1885.4288    
     73000   5.3736389     -4858.4763      0.62469407    -4857.8516      1886.2516    
     73100   4.6427215     -4858.3407      0.53972376    -4857.801       1887.3026    
     73200   4.0870624     -4858.2008      0.47512751    -4857.7256      1888.213     
     73300   3.920723      -4858.0709      0.45579029    -4857.6151      1888.785     
     73400   4.3925684     -4857.9514      0.51064307    -4857.4408      1889.5782    
     73500   6.0097648     -4857.837       0.69864472    -4857.1383      1890.6528    
     73600   9.4783991     -4857.7154      1.101879      -4856.6135      1891.7651    
     73700   14.404483     -4857.5704      1.6745441     -4855.8959      1892.6546    
     73800   17.953717     -4857.3989      2.0871481     -4855.3117      1893.4299    
     73900   17.853229     -4857.2186      2.0754662     -4855.1431      1893.3085    
     74000   15.128912     -4857.0511      1.7587601     -4855.2923      1892.0054    
     74100   11.876797     -4856.9096      1.3806966     -4855.5289      1889.8457    
     74200   9.1277666     -4856.7887      1.0611174     -4855.7276      1887.7332    
     74300   7.0489        -4856.68        0.81944585    -4855.8606      1886.1144    
     74400   5.5367629     -4856.5799      0.6436575     -4855.9362      1884.4857    
     74500   4.463827      -4856.4876      0.51892699    -4855.9686      1883.0259    
     74600   3.7692358     -4856.4072      0.43817967    -4855.969       1882.0863    
     74700   3.4365141     -4856.3426      0.39950024    -4855.9431      1881.6349    
     74800   3.5090484     -4856.2973      0.40793246    -4855.8894      1881.1958    
     74900   4.1333585     -4856.275       0.4805095     -4855.7945      1880.6787    
     75000   5.6522901     -4856.28        0.65708772    -4855.6229      1880.5393    
     75100   8.7387387     -4856.3187      1.0158923     -4855.3028      1880.989     
     75200   14.255746     -4856.3987      1.6572532     -4854.7414      1881.4925    
     75300   21.850786     -4856.5244      2.5401887     -4853.9842      1881.9621    
     75400   27.421942     -4856.6832      3.1878444     -4853.4953      1882.7507    
     75500   24.974033     -4856.826       2.9032711     -4853.9227      1883.5806    
     75600   14.936115     -4856.8929      1.7363471     -4855.1565      1884.2305    
     75700   6.1386492     -4856.8913      0.71362774    -4856.1777      1886.2342    
     75800   2.711667      -4856.8956      0.31523561    -4856.5804      1888.4641    
     75900   1.4928143     -4856.8452      0.17354204    -4856.6717      1891.4805    
     76000   1.4781991     -4856.8636      0.171843      -4856.6918      1892.6285    
     76100   2.3726721     -4856.9658      0.27582691    -4856.69        1891.3019    
     76200   3.7837241     -4857.0778      0.43986395    -4856.6379      1890.5178    
     76300   5.3902009     -4857.1917      0.62661944    -4856.565       1888.9831    
     76400   7.2872381     -4857.2862      0.84715303    -4856.4391      1888.6458    
     76500   9.1459203     -4857.3285      1.0632278     -4856.2652      1889.3302    
     76600   10.584125     -4857.3035      1.2304213     -4856.073       1890.8235    
     76700   11.616444     -4857.2528      1.3504301     -4855.9024      1892.1609    
     76800   12.489496     -4857.2424      1.4519238     -4855.7904      1892.4511    
     76900   11.904872     -4857.1748      1.3839603     -4855.7908      1897.6719    
     77000   10.70675      -4857.1344      1.2446767     -4855.8897      1903.0917    
     77100   10.212582     -4857.2394      1.187229      -4856.0521      1903.243     
     77200   10.610104     -4857.5593      1.2334415     -4856.3258      1899.2006    
     77300   9.2395292     -4857.7824      1.07411       -4856.7083      1891.7286    
     77400   6.9907504     -4857.9486      0.81268586    -4857.1359      1886.999     
     77500   4.2901562     -4857.9381      0.49873749    -4857.4394      1882.0928    
     77600   2.8030634     -4857.9434      0.32586058    -4857.6175      1881.1676    
     77700   2.2201997     -4857.9702      0.25810175    -4857.7121      1880.7034    
     77800   2.2171483     -4858.0229      0.25774702    -4857.7651      1880.6548    
     77900   2.6533494     -4858.1022      0.30845609    -4857.7937      1880.8928    
     78000   3.4973373     -4858.2058      0.40657102    -4857.7993      1881.4788    
     78100   4.7503047     -4858.3269      0.55223048    -4857.7747      1882.3266    
     78200   6.3604775     -4858.4484      0.73941563    -4857.709       1883.7658    
     78300   8.1667934     -4858.5416      0.94940273    -4857.5922      1885.8429    
     78400   9.9040105     -4858.5657      1.151357      -4857.4144      1888.5859    
     78500   11.469529     -4858.4824      1.333351      -4857.149       1892.4057    
     78600   13.527556     -4858.2903      1.5725999     -4856.7177      1897.0489    
     78700   17.833942     -4858.0616      2.0732241     -4855.9884      1902.2662    
     78800   25.41875      -4857.9282      2.9549701     -4854.9732      1905.8665    
     78900   31.772553     -4857.9846      3.6936099     -4854.291       1906.164     
     79000   28.192535     -4858.1399      3.2774271     -4854.8624      1902.5743    
     79100   16.973259     -4858.2012      1.9731684     -4856.2281      1896.877     
     79200   8.433274      -4858.1536      0.98038152    -4857.1732      1891.9493    
     79300   4.3966777     -4858.0744      0.51112078    -4857.5633      1888.7246    
     79400   2.5879215     -4858.0026      0.30084999    -4857.7017      1886.5764    
     79500   1.7199157     -4857.949       0.19994294    -4857.7491      1884.9906    
     79600   1.3486175     -4857.9182      0.15677894    -4857.7614      1883.7245    
     79700   1.3561052     -4857.9135      0.15764939    -4857.7559      1882.7514    
     79800   1.7801379     -4857.9379      0.20694387    -4857.7309      1882.1364    
     79900   2.7949285     -4857.9927      0.32491488    -4857.6678      1881.9809    
     80000   4.7011606     -4858.0716      0.5465174     -4857.5251      1882.3163    
     80100   7.6878887     -4858.1421      0.8937293     -4857.2483      1883.722     
     80200   11.107701     -4858.1257      1.291288      -4856.8344      1886.6497    
     80300   12.344617     -4857.8697      1.4350814     -4856.4347      1895.714     
     80400   8.4928293     -4857.1564      0.98730493    -4856.1691      1907.7162    
     80500   5.4458029     -4856.6975      0.63308326    -4856.0644      1915.7473    
     80600   9.2264439     -4856.9824      1.0725888     -4855.9098      1914.9934    
     80700   16.259481     -4857.5693      1.8901905     -4855.6791      1907.2222    
     80800   18.804382     -4857.7627      2.1860394     -4855.5766      1898.8932    
     80900   16.833568     -4857.8588      1.9569291     -4855.9019      1893.044     
     81000   12.400742     -4857.9155      1.441606      -4856.4739      1889.0084    
     81100   7.6344137     -4857.9359      0.88751275    -4857.0484      1886.5001    
     81200   4.1994495     -4857.9447      0.48819269    -4857.4565      1884.4013    
     81300   2.4126313     -4857.9601      0.28047224    -4857.6797      1882.6501    
     81400   1.7378862     -4857.9848      0.20203203    -4857.7828      1882.0043    
     81500   1.699031      -4858.0215      0.19751506    -4857.824       1882.0945    
     81600   2.0757418     -4858.0733      0.24130829    -4857.832       1882.1       
     81700   2.7828337     -4858.1421      0.32350885    -4857.8186      1882.097     
     81800   3.8205547     -4858.2269      0.44414556    -4857.7827      1882.8679    
     81900   5.2197328     -4858.3221      0.60680225    -4857.7153      1884.4356    
     82000   6.9496549     -4858.4157      0.80790845    -4857.6078      1886.1152    
     82100   8.7674466     -4858.4818      1.0192296     -4857.4626      1888.2442    
     82200   10.196513     -4858.489       1.1853609     -4857.3036      1891.3776    
     82300   10.81496      -4858.4251      1.2572563     -4857.1679      1894.7948    
     82400   10.307737     -4858.3033      1.1982908     -4857.1051      1899.0879    
     82500   8.1549845     -4858.015       0.94802994    -4857.067       1901.1722    
     82600   7.6953231     -4857.9347      0.89459357    -4857.0401      1900.1635    
     82700   9.0076968     -4858.0729      1.0471591     -4857.0258      1900.9643    
     82800   9.0936904     -4858.0429      1.057156      -4856.9857      1899.4566    
[...]
    181100   12.045943     -4858.0778      1.4003601     -4856.6774      1893.9634    
    181200   13.372891     -4858.0126      1.5546199     -4856.458       1892.4384    
    181300   12.901505     -4857.8205      1.4998205     -4856.3207      1892.2422    
    181400   11.238798     -4857.5927      1.3065282     -4856.2862      1893.4654    
    181500   9.425106      -4857.425       1.0956836     -4856.3294      1892.7045    
    181600   7.7535372     -4857.3213      0.90136105    -4856.4199      1889.3136    
    181700   6.2474608     -4857.257       0.72627726    -4856.5307      1886.4661    
    181800   4.9266064     -4857.2098      0.57272584    -4856.6371      1884.9977    
    181900   3.7738035     -4857.1593      0.43871066    -4856.7206      1883.1025    
    182000   2.8444567     -4857.1043      0.33067262    -4856.7736      1880.4927    
    182100   2.2413411     -4857.0587      0.26055947    -4856.7982      1879.1573    
    182200   2.0714438     -4857.0401      0.24080863    -4856.7993      1879.4145    
    182300   2.4818692     -4857.0628      0.28852124    -4856.7743      1879.2302    
    182400   3.810036      -4857.142       0.44292275    -4856.6991      1878.0648    
    182500   6.7749318     -4857.2968      0.78759661    -4856.5092      1878.0382    
    182600   12.42754      -4857.5496      1.4447213     -4856.1049      1880.1897    
    182700   20.579411     -4857.8994      2.3923893     -4855.507       1882.5434    
    182800   26.476899     -4858.2504      3.0779816     -4855.1725      1884.3498    
    182900   23.313468     -4858.3861      2.7102277     -4855.6759      1887.7611    
    183000   12.591061     -4858.0962      1.4637309     -4856.6325      1897.4518    
    183100   4.7722935     -4857.7063      0.55478672    -4857.1515      1903.1661    
    183200   3.3047049     -4857.7285      0.38417721    -4857.3443      1903.4642    
    183300   4.5246693     -4857.9994      0.52600001    -4857.4734      1900.832     
    183400   5.539684      -4858.1977      0.64399708    -4857.5537      1896.8224    
    183500   6.438327      -4858.3918      0.74846577    -4857.6433      1897.5601    
    183600   7.2339058     -4858.5317      0.84095307    -4857.6908      1894.7073    
    183700   7.4930858     -4858.5794      0.87108315    -4857.7083      1888.9178    
    183800   6.8226396     -4858.5261      0.79314271    -4857.733       1888.5311    
    183900   5.9257263     -4858.4308      0.68887511    -4857.7419      1888.0144    
    184000   5.1240291     -4858.3269      0.59567654    -4857.7312      1886.5956    
    184100   4.5316153     -4858.2268      0.5268075     -4857.7         1885.5575    
    184200   4.1225242     -4858.126       0.47925       -4857.6467      1885.0637    
    184300   3.8565342     -4858.0162      0.44832825    -4857.5679      1884.2183    
    184400   3.7993777     -4857.8955      0.44168371    -4857.4538      1882.5678    
    184500   4.1493906     -4857.7612      0.48237326    -4857.2789      1881.3911    
    184600   5.4038166     -4857.6059      0.62820228    -4856.9777      1881.628     
    184700   8.4576144     -4857.413       0.98321114    -4856.4298      1881.8978    
    184800   13.10481      -4857.1674      1.5234551     -4855.644       1880.9478    
    184900   15.807751     -4856.8863      1.8376762     -4855.0486      1880.4991    
    185000   14.911338     -4856.6196      1.7334667     -4854.8862      1881.7654    
    185100   12.495998     -4856.4005      1.4526796     -4854.9478      1882.1563    
    185200   10.088083     -4856.239       1.1727557     -4855.0663      1880.7631    
    185300   8.1725054     -4856.1311      0.95006676    -4855.181       1880.4896    
    185400   6.8208043     -4856.0668      0.79292936    -4855.2739      1882.2899    
    185500   5.9255464     -4856.0304      0.6888542     -4855.3416      1883.4861    
    185600   5.3394551     -4856.0055      0.62072015    -4855.3848      1883.2387    
    185700   4.9092526     -4855.9746      0.57070843    -4855.4039      1884.1151    
    185800   4.6028538     -4855.9323      0.53508908    -4855.3972      1886.67      
    185900   4.519867      -4855.8864      0.52544174    -4855.361       1888.4625    
    186000   4.9169328     -4855.8565      0.57160127    -4855.2849      1888.3333    
    186100   6.1601831     -4855.8592      0.71613109    -4855.143       1888.8555    
    186200   8.6507624     -4855.8909      1.0056649     -4854.8853      1891.5306    
    186300   12.327153     -4855.896       1.4330512     -4854.4629      1894.0851    
    186400   15.590297     -4855.7406      1.8123968     -4853.9282      1896.731     
    186500   16.06518      -4855.3931      1.8676028     -4853.5255      1906.9782    
    186600   14.09771      -4854.9165      1.6388813     -4853.2777      1940.1332    
    186700   11.761844     -4854.6383      1.3673331     -4853.271       1969.2318    
    186800   12.246793     -4854.6871      1.4237092     -4853.2634      1940.1306    
    186900   14.333893     -4855.0352      1.6663379     -4853.3689      1909.1624    
    187000   13.735931     -4855.3901      1.5968238     -4853.7933      1897.3871    
    187100   9.1993175     -4855.5499      1.0694353     -4854.4805      1890.3902    
    187200   4.9137047     -4855.5589      0.57122599    -4854.9877      1885.6664    
    187300   2.6645672     -4855.535       0.30976017    -4855.2252      1884.1453    
    187400   1.7539563     -4855.5237      0.20390021    -4855.3198      1884.6182    
    187500   1.5506385     -4855.5395      0.1802642     -4855.3592      1884.3499    
    187600   1.827731      -4855.587       0.21247664    -4855.3745      1883.2773    
    187700   2.5616956     -4855.6671      0.29780119    -4855.3693      1883.5329    
    187800   3.8128641     -4855.776       0.44325152    -4855.3327      1885.329     
    187900   5.6359193     -4855.9004      0.65518459    -4855.2452      1886.6848    
    188000   7.9571638     -4856.0136      0.92503296    -4855.0886      1887.5723    
    188100   10.48996      -4856.0831      1.2194746     -4854.8636      1890.6893    
    188200   12.870397     -4856.1012      1.4962041     -4854.605       1896.451     
    188300   14.809005     -4856.0997      1.7215704     -4854.3781      1902.0759    
    188400   15.790989     -4856.1528      1.8357276     -4854.317       1904.0744    
    188500   15.440319     -4856.2488      1.7949616     -4854.4538      1903.7314    
    188600   12.406248     -4856.333       1.4422461     -4854.8908      1901.997     
    188700   7.713481      -4856.4226      0.89670444    -4855.5259      1897.989     
    188800   4.368637      -4856.4906      0.50786101    -4855.9827      1894.1963    
    188900   2.8745071     -4856.5518      0.33416603    -4856.2176      1892.1958    
    189000   2.3395134     -4856.6063      0.27197215    -4856.3343      1891.1394    
    189100   2.1732369     -4856.6477      0.25264225    -4856.395       1889.598     
    189200   2.1017069     -4856.6677      0.24432678    -4856.4233      1887.4096    
    189300   2.0290786     -4856.6632      0.23588361    -4856.4273      1886.1843    
    189400   1.9888642     -4856.6408      0.23120863    -4856.4096      1885.9023    
    189500   2.0573538     -4856.6079      0.23917066    -4856.3688      1885.1756    
    189600   2.3690567     -4856.5719      0.27540661    -4856.2965      1883.9436    
    189700   3.1669203     -4856.5391      0.36815953    -4856.171       1883.6875    
    189800   4.8294007     -4856.5138      0.56142552    -4855.9524      1884.7178    
    189900   7.6564284     -4856.4981      0.89007199    -4855.608       1885.2519    
    190000   11.210879     -4856.4916      1.3032825     -4855.1884      1885.0437    
    190100   14.139574     -4856.4944      1.643748      -4854.8506      1886.4083    
    190200   15.304779     -4856.5059      1.7792049     -4854.7267      1889.0944    
    190300   14.733945     -4856.5303      1.7128446     -4854.8175      1890.4289    
    190400   13.215035     -4856.5743      1.5362689     -4855.038       1890.6204    
    190500   11.53529      -4856.6426      1.3409958     -4855.3017      1891.9779    
    190600   10.116421     -4856.7672      1.17605       -4855.5912      1892.7165    
    190700   9.193013      -4856.8884      1.0687024     -4855.8197      1891.8612    
    190800   8.7075087     -4857.0029      1.0122618     -4855.9906      1890.1835    
    190900   8.4447678     -4857.1576      0.9817177     -4856.1759      1888.6436    
    191000   8.3075698     -4857.3138      0.96576821    -4856.348       1888.2539    
    191100   8.1696167     -4857.4605      0.94973094    -4856.5107      1887.2932    
    191200   7.9186999     -4857.5857      0.92056147    -4856.6651      1886.3051    
    191300   7.4649311     -4857.6765      0.86781012    -4856.8087      1886.941     
    191400   6.7611171     -4857.7218      0.78599062    -4856.9358      1888.6792    
    191500   5.9140206     -4857.728       0.68751431    -4857.0405      1889.4839    
    191600   5.2262714     -4857.7303      0.60756237    -4857.1227      1889.2842    
    191700   4.8672681     -4857.7565      0.56582766    -4857.1907      1889.6687    
    191800   4.5111276     -4857.8041      0.52442576    -4857.2797      1894.3888    
    191900   4.1206691     -4857.844       0.47903435    -4857.3649      1894.618     
    192000   4.5001452     -4858.0168      0.52314905    -4857.4937      1891.7659    
    192100   4.7144463     -4858.2106      0.54806189    -4857.6626      1886.5343    
    192200   3.9424474     -4858.3095      0.45831579    -4857.8512      1886.4722    
    192300   3.1720544     -4858.3641      0.36875638    -4857.9954      1885.8191    
    192400   2.5686868     -4858.3897      0.29861393    -4858.0911      1885.0214    
    192500   2.1923558     -4858.4039      0.25486485    -4858.149       1885.0753    
    192600   2.0181995     -4858.4146      0.2346189     -4858.18        1885.6372    
    192700   2.0580976     -4858.4287      0.23925712    -4858.1895      1885.5514    
    192800   2.3575541     -4858.4501      0.27406942    -4858.1761      1885.054     
    192900   3.0116591     -4858.4789      0.35011016    -4858.1287      1885.2623    
    193000   4.2021506     -4858.5103      0.4885067     -4858.0218      1886.0472    
    193100   6.2290543     -4858.5348      0.72413748    -4857.8106      1886.3601    
    193200   9.3901743     -4858.5374      1.0916227     -4857.4458      1886.5676    
    193300   13.505958     -4858.5055      1.5700891     -4856.9354      1888.1907    
    193400   17.360684     -4858.4442      2.0182072     -4856.426       1890.5864    
    193500   19.121461     -4858.3836      2.2229003     -4856.1607      1891.341     
    193600   17.723123     -4858.3435      2.0603413     -4856.2832      1890.204     
    193700   13.828926     -4858.3121      1.6076347     -4856.7045      1889.1812    
    193800   9.2531106     -4858.2696      1.0756888     -4857.1939      1888.1111    
    193900   5.5639973     -4858.2183      0.64682354    -4857.5715      1886.3042    
    194000   3.2380576     -4858.1719      0.37642935    -4857.7955      1884.652     
    194100   1.9938352     -4858.14        0.23178651    -4857.9083      1884.2541    
    194200   1.4286701     -4858.127       0.16608518    -4857.9609      1884.4548    
    194300   1.2956709     -4858.1348      0.1506238     -4857.9842      1884.185     
    194400   1.5028026     -4858.1646      0.1747032     -4857.9899      1883.792     
    194500   2.0603455     -4858.2163      0.23951844    -4857.9768      1884.2311    
    194600   3.0115621     -4858.285       0.35009889    -4857.9349      1885.2751    
    194700   4.291949      -4858.3518      0.4989459     -4857.8529      1886.1191    
    194800   5.4269155     -4858.3692      0.63088757    -4857.7383      1887.3474    
    194900   5.4567667     -4858.2694      0.63435782    -4857.6351      1890.7933    
    195000   4.0844493     -4858.0501      0.47482373    -4857.5753      1895.8191    
    195100   2.397408      -4857.856       0.2787025     -4857.5773      1899.8117    
    195200   1.542733      -4857.7305      0.17934517    -4857.5511      1902.4505    
    195300   2.4522827     -4857.7958      0.28508177    -4857.5107      1901.5824    
    195400   5.4278586     -4857.9959      0.6309972     -4857.3649      1898.4148    
    195500   10.210464     -4858.3128      1.1869827     -4857.1259      1893.191     
    195600   15.336807     -4858.5819      1.7829282     -4856.7989      1888.5464    
    195700   17.468482     -4858.6346      2.0307388     -4856.6039      1886.1923    
    195800   15.665365     -4858.5235      1.8211236     -4856.7023      1885.148     
    195900   11.751999     -4858.3679      1.3661886     -4857.0017      1883.7321    
    196000   7.8339164     -4858.2254      0.91070526    -4857.3147      1882.5177    
    196100   4.9384689     -4858.1135      0.57410488    -4857.5394      1882.7097    
    196200   3.1083677     -4858.0318      0.36135269    -4857.6704      1883.3306    
    196300   2.0417092     -4857.975       0.23735195    -4857.7377      1883.2793    
    196400   1.456592      -4857.9377      0.16933114    -4857.7684      1883.1965    
    196500   1.18337       -4857.9159      0.13756865    -4857.7783      1883.9574    
    196600   1.1562913     -4857.9074      0.13442071    -4857.773       1884.9007    
    196700   1.4297128     -4857.9128      0.16620639    -4857.7466      1885.0573    
    196800   2.3007444     -4857.9354      0.2674652     -4857.6679      1885.1566    
    196900   4.7329533     -4857.9849      0.55021335    -4857.4347      1886.2197    
    197000   10.649471     -4858.0829      1.2380179     -4856.8449      1887.6252    
    197100   19.890905     -4858.2476      2.3123493     -4855.9353      1887.9049    
    197200   26.25085      -4858.4351      3.0517032     -4855.3834      1887.2661    
    197300   24.226449     -4858.4987      2.8163632     -4855.6823      1888.6118    
    197400   16.186042     -4858.2739      1.8816532     -4856.3922      1891.556     
    197500   8.5792567     -4857.8889      0.99735225    -4856.8916      1893.3451    
    197600   4.3513391     -4857.6075      0.5058501     -4857.1017      1894.506     
    197700   2.4112038     -4857.4512      0.28030628    -4857.1709      1896.6947    
    197800   1.6433607     -4857.3929      0.19104329    -4857.2019      1897.3693    
    197900   1.6717699     -4857.3755      0.19434591    -4857.1811      1895.8571    
    198000   2.5469317     -4857.4467      0.29608487    -4857.1506      1892.8598    
    198100   4.6757892     -4857.6091      0.54356793    -4857.0656      1891.2437    
    198200   8.4147021     -4857.8495      0.97822251    -4856.8713      1889.4048    
    198300   12.282657     -4857.9883      1.4278785     -4856.5604      1886.1415    
    198400   14.230873     -4857.9018      1.6543617     -4856.2474      1883.9344    
    198500   13.963805     -4857.6759      1.6233146     -4856.0526      1884.5404    
    198600   12.181779     -4857.416       1.4161512     -4855.9999      1885.5053    
    198700   9.7139988     -4857.1816      1.1292678     -4856.0523      1884.9196    
    198800   7.1349639     -4856.9995      0.82945091    -4856.17        1884.128     
    198900   4.7905284     -4856.8707      0.55690655    -4856.3138      1884.3983    
    199000   2.9874368     -4856.7843      0.34729429    -4856.437       1884.3268    
    199100   1.8465915     -4856.7313      0.2146692     -4856.5166      1883.12      
    199200   1.2448008     -4856.7046      0.14471008    -4856.5598      1882.3132    
    199300   1.0211849     -4856.7003      0.11871437    -4856.5816      1882.7722    
    199400   1.0787809     -4856.7158      0.12540999    -4856.5904      1883.2447    
    199500   1.4139996     -4856.7501      0.1643797     -4856.5857      1882.8909    
    199600   2.1218411     -4856.8026      0.24666741    -4856.556       1882.898     
    199700   3.4590369     -4856.8734      0.40211855    -4856.4713      1884.3868    
    199800   5.9066182     -4856.961       0.68665377    -4856.2744      1886.0511    
    199900   10.04495      -4857.0615      1.1677415     -4855.8938      1887.1551    
    200000   15.67213      -4857.1628      1.8219101     -4855.3409      1888.9906    
    200019   16.763901     -4857.1807      1.9488302     -4855.2319      1890.3366    
Loop time of 64.0213 on 1 procs for 200000 steps with 40 atoms

Performance: 67.478 ns/day, 0.356 hours/ns, 3123.961 timesteps/s, 124.958 katom-step/s
93.7% CPU use with 1 MPI tasks x 1 OpenMP threads

MPI task timing breakdown:
Section |  min time  |  avg time  |  max time  |%varavg| %total
---------------------------------------------------------------
Pair    | 50.456     | 50.456     | 50.456     |   0.0 | 78.81
Neigh   | 0.0046497  | 0.0046497  | 0.0046497  |   0.0 |  0.01
Comm    | 0.099607   | 0.099607   | 0.099607   |   0.0 |  0.16
Output  | 1.4135     | 1.4135     | 1.4135     |   0.0 |  2.21
Modify  | 11.933     | 11.933     | 11.933     |   0.0 | 18.64
Other   |            | 0.1143     |            |       |  0.18

Nlocal:             40 ave          40 max          40 min
Histogram: 1 0 0 0 0 0 0 0 0 0
Nghost:             26 ave          26 max          26 min
Histogram: 1 0 0 0 0 0 0 0 0 0
Neighs:            775 ave         775 max         775 min
Histogram: 1 0 0 0 0 0 0 0 0 0

Total # of neighbors = 775
Ave neighs/atom = 19.375
Neighbor list builds = 173
Dangerous builds = 0

# Final energy minimization for most stable adsorption structure
unfix nvt
minimize 1.0e-6 1.0e-8 5000 10000
Per MPI rank memory allocation (min/avg/max) = 14.45 | 14.45 | 14.45 Mbytes
   Step          Temp          PotEng         KinEng         TotEng         Press     
    200019   16.763901     -4857.1807      1.9488302     -4855.2319      1890.3375    
    200020   16.763901     -4857.1813      1.9488302     -4855.2324      1892.5393    
Loop time of 0.0015545 on 1 procs for 1 steps with 40 atoms

67.4% CPU use with 1 MPI tasks x 1 OpenMP threads

Minimization stats:
  Stopping criterion = energy tolerance
  Energy initial, next-to-last, final = 
     -4857.18073686981  -4857.18073686981  -4857.18127800383
  Force two-norm initial, final = 0.70186723 2.9662074
  Force max component initial, final = 0.54932971 1.7743518
  Final line search alpha, max atom move = 0.18204004 0.32300306
  Iterations, force evaluations = 1 2

MPI task timing breakdown:
Section |  min time  |  avg time  |  max time  |%varavg| %total
---------------------------------------------------------------
Pair    | 0.0007698  | 0.0007698  | 0.0007698  |   0.0 | 49.52
Neigh   | 0          | 0          | 0          |   0.0 |  0.00
Comm    | 1.9e-06    | 1.9e-06    | 1.9e-06    |   0.0 |  0.12
Output  | 0          | 0          | 0          |   0.0 |  0.00
Modify  | 0.0002004  | 0.0002004  | 0.0002004  |   0.0 | 12.89
Other   |            | 0.0005824  |            |       | 37.47

Nlocal:             40 ave          40 max          40 min
Histogram: 1 0 0 0 0 0 0 0 0 0
Nghost:             24 ave          24 max          24 min
Histogram: 1 0 0 0 0 0 0 0 0 0
Neighs:            775 ave         775 max         775 min
Histogram: 1 0 0 0 0 0 0 0 0 0

Total # of neighbors = 775
Ave neighs/atom = 19.375
Neighbor list builds = 0
Dangerous builds = 0
write_data final_structure_${i}.data  # Save final structure for DFT
write_data final_structure_20.data  
System init for write_data ...

# Dump final structure in XYZ format for DFT input
write_dump all xyz final_structure_${i}.xyz
write_dump all xyz final_structure_20.xyz

# Move back to parent directory
shell cd ..

# Increment loop
next i
jump SELF loop_start
Total wall time: 0:21:06
