
                                 *****************
                                 * O   R   C   A *
                                 *****************

                                            #,                                       
                                            ###                                      
                                            ####                                     
                                            #####                                    
                                            ######                                   
                                           ########,                                 
                                     ,,################,,,,,                         
                               ,,#################################,,                 
                          ,,##########################################,,             
                       ,#########################################, ''#####,          
                    ,#############################################,,   '####,        
                  ,##################################################,,,,####,       
                ,###########''''           ''''###############################       
              ,#####''   ,,,,##########,,,,          '''####'''          '####       
            ,##' ,,,,###########################,,,                        '##       
           ' ,,###''''                  '''############,,,                           
         ,,##''                                '''############,,,,        ,,,,,,###''
      ,#''                                            '''#######################'''  
     '                                                          ''''####''''         
             ,#######,   #######,   ,#######,      ##                                
            ,#'     '#,  ##    ##  ,#'     '#,    #''#        ,####,   ,####,        
            ##       ##  ##   ,#'  ##            #'  '#       #'       #'  '#        
            ##       ##  #######   ##           ,######,      #####,   #    #        
            '#,     ,#'  ##    ##  '#,     ,#' ,#      #,     #,   #   #,  ,#        
             '#######'   ##     ##  '#######'  #'      '#     '####' # '####'        



                #########################################################
                #                        -***-                          #
                #          Department of theory and spectroscopy        #
                #                                                       #
                #                      Frank Neese                      #
                #                                                       #
                #     Directorship, Architecture, Infrastructure        #
                #                    SHARK, DRIVERS                     #
                #        Core code/Algorithms in most modules           #
                #                                                       #
                #        Max Planck Institute fuer Kohlenforschung      #
                #                Kaiser Wilhelm Platz 1                 #
                #                 D-45470 Muelheim/Ruhr                 #
                #                      Germany                          #
                #                                                       #
                #                  All rights reserved                  #
                #                        -***-                          #
                #########################################################


                         Program Version 6.0.1  -  RELEASE   -


 With contributions from (in alphabetic order):
[Max-Planck-Institut fuer Kohlenforschung]                               
  Daniel Aravena         : Magnetic Suceptibility                        
  Michael Atanasov       : Ab Initio Ligand Field Theory (pilot matlab implementation)
  Alexander A. Auer      : GIAO ZORA, VPT2 properties, NMR spectrum      
  Ute Becker             : All parallelization in ORCA, NUMFREQ, NUMCALC 
  Giovanni Bistoni       : ED, misc. LED, open-shell LED, HFLD           
  Martin Brehm           : Molecular dynamics                            
  Dmytro Bykov           : pre 5.0 version of the SCF Hessian            
  Marcos Casanova-Páez   : Triplet and SCS-CIS(D). UHF-(DLPNO)-IP/EA/STEOM-CCSD. UHF-CVS-IP/STEOM-CCSD   
  Vijay G. Chilkuri      : MRCI spin determinant printing, contributions to CSF-ICE 
  Pauline Colinet        : FMM embedding                                 
  Dipayan Datta          : RHF DLPNO-CCSD density                        
  Achintya Kumar Dutta   : EOM-CC, STEOM-CC                              
  Nicolas Foglia         : Exact transition moments, OPA infrastructure, MCD improvements    
  Dmitry Ganyushin       : Spin-Orbit,Spin-Spin,Magnetic field MRCI      
  Miquel Garcia-Rates    : C-PCM and meta-GGA Hessian, CCSD/C-PCM, Gaussian charge scheme 
  Tiago L. C. Gouveia    : GS-ROHF, GS-ROCIS                             
  Yang Guo               : DLPNO-NEVPT2, F12-NEVPT2, CIM, IAO-localization        
  Andreas Hansen         : Spin unrestricted coupled pair/coupled cluster methods 
  Ingolf Harden          : AUTO-CI MPn and infrastructure                
  Benjamin Helmich-Paris : MC-RPA, TRAH-(SCF,CASSCF), AVAS, COSX integrals, SCF dyn. polar. 
  Lee Huntington         : MR-EOM, pCC                                   
  Robert Izsak           : Overlap fitted RIJCOSX, COSX-SCS-MP3, EOM     
  Riya Kayal             : Wick's Theorem for AUTO-CI, AUTO-CI UHF-CCSDT 
  Emily Kempfer          : AUTO-CI, RHF CISDT and CCSDT                  
  Christian Kollmar      : KDIIS, OOCD, Brueckner-CCSD(T), CCSD density, CASPT2, CASPT2-K, improved NEVPT2 
  Axel Koslowski         : Symmetry handling                             
  Simone Kossmann        : meta-GGA functionals, TD-DFT gradient, OOMP2, (MP2 Hessian; deprecated post 5.0) 
  Lucas Lang             : DCDCAS                                        
  Marvin Lechner         : AUTO-CI (C++ implementation), FIC-MRCC        
  Spencer Leger          : CASSCF response                               
  Dagmar Lenk            : GEPOL surface, SMD, ORCA-2-JSON               
  Dimitrios Liakos       : Extrapolation schemes; Compound Job, initial MDCI parallelization 
  Dimitrios Manganas     : Further ROCIS development; embedding schemes. LFT, Crystal Embedding 
  Dimitrios Pantazis     : SARC Basis sets                               
  Anastasios Papadopoulos: AUTO-CI, single reference methods and gradients 
  Taras Petrenko         : pre 6.0 DFT Hessian and TD-DFT gradient, (ASA, deprecated), ECA, 1-Electron XAS/XES, NRVS 
  Peter Pinski           : DLPNO-MP2, DLPNO-MP2 Gradient                 
  Christoph Reimann      : Effective Core Potentials                     
  Marius Retegan         : Local ZFS, SOC                                
  Christoph Riplinger    : Optimizer, TS searches, QM/MM, DLPNO-CCSD(T), (RO)-DLPNO pert. Triples 
  Michael Roemelt        : Original ROCIS implementation                 
  Masaaki Saitow         : Open-shell DLPNO-CCSD energy and density      
  Barbara Sandhoefer     : DKH picture change effects                    
  Kantharuban Sivalingam : CASSCF convergence/infrastructure, NEVPT2 and variants, FIC-MRCI 
  Bernardo de Souza      : ESD, SOC TD-DFT                               
  Georgi L. Stoychev     : AutoAux, RI-MP2 NMR, DLPNO-MP2 response, X2C  
  Van Anh Tran           : RI-MP2 g-tensors                              
  Willem Van den Heuvel  : Paramagnetic NMR                              
  Zikuan Wang            : NOTCH, Electric field optimization            
  Frank Wennmohs         : Technical directorship and infrastructure     
  Hang Xu                : AUTO-CI-Response properties                   
                                                                         
[FACCTs GmbH]                                                            
  Markus Bursch, Miquel Garcia-Rates, Christoph Riplinger, Bernardo de Souza, Georgi L. Stoychev 
                                                                 
  APM, Basis sets (HGBS, AHGBS, def-TZVP (Ac-Lr), def2-XVPD (La-Lu)), CI-OPT, improved COSX, DLPNO-Multilevel,           
  DOCKER, DRACO, updates on ESD, GOAT, IRC, LR-CPCM, MBIS, meta-GGA TD-DFT gradient, ML-optimized integration grids, 
  MM, NACMEs, nearIR, NEB, NEB-TS, NL-DFT gradient (VV10), 2- and 3-layer-ONIOM, interface openCOSMO-RS, QMMM,   
  Crystal-QMMM, SF, symmetry and pop. for TD-DFT, r2SCAN hybrids, SOLVATOR                                   
                                                                         
[Other institutions]                                                     
  V. Asgeirsson          : NEB                                           
  Christoph Bannwarth    : sTDA-DFT, sTD-DFT, PBEh-3c, B97-3c, D3        
  Sebastian Ehlert       : rSCAN, r2SCAN, r2SCAN-3c, D4, dhf basis sets  
  Marvin Friede          : D4 for Fr, Ra, Ac-Lr                          
  Lars Goerigk           : TD-DFT with DH, B97 family of functionals     
  Stefan Grimme          : VdW corrections, initial TS optimization, DFT functionals, gCP, sTDA/sTD-DF 
  Waldemar Hujo          : DFT-NL                                        
  H. Jonsson             : NEB                                           
  Holger Kruse           : gCP                                           
  Marcel Mueller         : wB97X-3c, vDZP basis set                      
  Hagen Neugebauer       : wr2SCAN                                       
  Tobias Risthaus        : range-separated hybrid DFT                    
  Lukas Wittmann         : regularized MP2, r2SCAN double-hybrids, wr2SCAN        
                                                                         
We gratefully acknowledge several colleagues who have allowed us to      
interface, adapt or use parts of their codes:                            
  Ed Valeev, F. Pavosevic, A. Kumar             : LibInt (2-el integral package), F12 methods 
  Garnet Chan, S. Sharma, J. Yang, R. Olivares  : DMRG                   
  Ulf Ekstrom                                   : XCFun DFT Library      
  Mihaly Kallay                                 : mrcc  (arbitrary order and MRCC methods)
  Frank Weinhold                                : gennbo (NPA and NBO analysis)           
  Simon Mueller                                 : openCOSMO-RS                            
  Christopher J. Cramer and Donald G. Truhlar   : smd solvation model                     
  S Lehtola, MJT Oliveira, MAL Marques          : LibXC Library                           
  Liviu Ungur et al                             : ANISO software                          


 Your calculation uses the libint2 library for the computation of 2-el integrals
 For citations please refer to: http://libint.valeyev.net

 Your ORCA version has been built with support for libXC version: 6.2.2
 For citations please refer to: https://libxc.gitlab.io

 This ORCA versions uses:
   CBLAS   interface :  Fast vector & matrix operations
   LAPACKE interface :  Fast linear algebra routines
   SCALAPACK package :  Parallel linear algebra routines
   Shared memory     :  Shared parallel matrices
   BLAS/LAPACK       :  OpenBLAS 0.3.27  USE64BITINT DYNAMIC_ARCH NO_AFFINITY SkylakeX SINGLE_THREADED
        Core in use  :  SkylakeX
   Copyright (c) 2011-2014, The OpenBLAS Project


Your calculation utilizes the atom-pairwise dispersion correction
with the Becke-Johnson damping scheme (D3BJ)


Warning: RI is on but no J-basis has been assigned. Assigning Def2/J (nothing to worry about!)
================================================================================

----- Orbital basis set information -----
Your calculation utilizes the basis: def2-SVP
   F. Weigend and R. Ahlrichs, Phys. Chem. Chem. Phys. 7, 3297 (2005).

----- AuxJ basis set information -----
Your calculation utilizes the auxiliary basis: def2/J
   F. Weigend, Phys. Chem. Chem. Phys. 8, 1057 (2006).

================================================================================
                                        WARNINGS
                       Please study these warnings very carefully!
================================================================================


WARNING: Geometry Optimization
  ===> : Switching off AutoStart
         For restart on a previous wavefunction, please use MOREAD

================================================================================
                                       INPUT FILE
================================================================================
NAME = p_toluidine_2.inp
|  1> ! B3LYP def2-SVP OPT TightSCF ALLPOP KEEPDENS D3BJ
|  2> 
|  3> %pal
|  4> nprocs 4
|  5> end
|  6> 
|  7> * xyz 0 1
|  8> N         -2.81540        0.00030       -0.00010
|  9> C          1.38480        0.00000       -0.00010
| 10> C         -1.40500       -0.00020        0.00000
| 11> C          0.68740       -1.20800        0.00000
| 12> C          0.68730        1.20790        0.00000
| 13> C         -0.70750       -1.20810        0.00010
| 14> C         -0.70760        1.20780        0.00010
| 15> C          2.87610        0.00020        0.00000
| 16> H          1.21950       -2.15560       -0.00180
| 17> H          1.21930        2.15560       -0.00180
| 18> H         -1.23950       -2.15600       -0.00030
| 19> H         -1.23970        2.15580       -0.00030
| 20> H          3.27100        0.87910        0.52090
| 21> H          3.27150       -0.88160        0.51550
| 22> H          3.25180        0.00330       -1.02790
| 23> H         -3.32130        0.87590       -0.00090
| 24> H         -3.32190       -0.87510       -0.00090
| 25> *
| 26> 
| 27>                          ****END OF INPUT****
================================================================================

                       *****************************
                       * Geometry Optimization Run *
                       *****************************

Geometry optimization settings:
Update method            Update   .... BFGS
Choice of coordinates    CoordSys .... (2022) Redundant Internals
Initial Hessian          InHess   .... Almloef's Model
Max. no of cycles        MaxIter  .... 51

Convergence Tolerances:
Energy Change            TolE     ....  5.0000e-06 Eh
Max. Gradient            TolMAXG  ....  3.0000e-04 Eh/bohr
RMS Gradient             TolRMSG  ....  1.0000e-04 Eh/bohr
Max. Displacement        TolMAXD  ....  4.0000e-03 bohr
RMS Displacement         TolRMSD  ....  2.0000e-03 bohr
Strict Convergence                .... False

------------------------------------------------------------------------------
                        ORCA OPTIMIZATION COORDINATE SETUP
------------------------------------------------------------------------------

The optimization will be done in redundant internal coordinates (2022)
Making redundant internal coordinates   ...  (2022 redundants) done
Evaluating the initial hessian          ...  (Almloef) done
Evaluating the coordinates              ...  done
Calculating the B-matrix                .... done
Calculating the G-matrix                .... done
Diagonalizing the G-matrix              .... done
The first mode is                       ....   32
The number of degrees of freedom        ....   45

    -----------------------------------------------------------------
                    Redundant Internal Coordinates


    -----------------------------------------------------------------
         Definition                    Initial Value    Approx d2E/dq
    -----------------------------------------------------------------
      1. B(C   2,N   0)                  1.4104         0.519193   
      2. B(C   3,C   1)                  1.3949         0.613743   
      3. B(C   4,C   1)                  1.3948         0.613826   
      4. B(C   5,C   2)                  1.3948         0.613826   
      5. B(C   5,C   3)                  1.3949         0.613650   
      6. B(C   6,C   4)                  1.3949         0.613650   
      7. B(C   6,C   2)                  1.3949         0.613743   
      8. B(C   7,C   1)                  1.4913         0.430646   
      9. B(H   8,C   3)                  1.0868         0.364392   
     10. B(H   9,C   4)                  1.0868         0.364341   
     11. B(H  10,C   5)                  1.0870         0.364109   
     12. B(H  11,C   6)                  1.0871         0.363927   
     13. B(H  12,C   7)                  1.0953         0.353118   
     14. B(H  13,C   7)                  1.0953         0.353174   
     15. B(H  14,C   7)                  1.0944         0.354310   
     16. B(H  15,N   0)                  1.0112         0.430738   
     17. B(H  16,N   0)                  1.0114         0.430537   
     18. A(C   2,N   0,H  15)          120.0386         0.347785   
     19. A(C   2,N   0,H  16)          120.0330         0.347758   
     20. A(H  15,N   0,H  16)          119.9283         0.302792   
     21. A(C   3,C   1,C   7)          120.0063         0.406017   
     22. A(C   4,C   1,C   7)          119.9965         0.406027   
     23. A(C   3,C   1,C   4)          119.9972         0.432496   
     24. A(N   0,C   2,C   6)          119.9783         0.417001   
     25. A(N   0,C   2,C   5)          120.0245         0.417010   
     26. A(C   5,C   2,C   6)          119.9972         0.432496   
     27. A(C   1,C   3,C   5)          120.0027         0.432474   
     28. A(C   5,C   3,H   8)          119.3111         0.353002   
     29. A(C   1,C   3,H   8)          120.6861         0.353011   
     30. A(C   1,C   4,C   6)          120.0001         0.432484   
     31. A(C   6,C   4,H   9)          119.3121         0.352993   
     32. A(C   1,C   4,H   9)          120.6877         0.353010   
     33. A(C   2,C   5,H  10)          120.6929         0.352973   
     34. A(C   2,C   5,C   3)          120.0001         0.432484   
     35. A(C   3,C   5,H  10)          119.3070         0.352955   
     36. A(C   4,C   6,H  11)          119.3008         0.352926   
     37. A(C   2,C   6,H  11)          120.6965         0.352935   
     38. A(C   2,C   6,C   4)          120.0027         0.432474   
     39. A(H  13,C   7,H  14)          108.6872         0.289218   
     40. A(H  12,C   7,H  14)          108.7006         0.289211   
     41. A(C   1,C   7,H  14)          110.0736         0.331124   
     42. A(H  12,C   7,H  13)          106.9794         0.289066   
     43. A(C   1,C   7,H  13)          111.1570         0.330948   
     44. A(C   1,C   7,H  12)          111.1414         0.330939   
     45. D(C   6,C   2,N   0,H  15)      0.0524         0.021369   
     46. D(C   5,C   2,N   0,H  15)   -179.9524         0.021369   
     47. D(C   5,C   2,N   0,H  16)     -0.0524         0.021369   
     48. D(C   6,C   2,N   0,H  16)    179.9524         0.021369   
     49. D(C   5,C   3,C   1,C   7)    179.9908         0.026034   
     50. D(H   8,C   3,C   1,C   4)    179.8943         0.026034   
     51. D(H   8,C   3,C   1,C   7)     -0.1196         0.026034   
     52. D(C   5,C   3,C   1,C   4)      0.0047         0.026034   
     53. D(H   9,C   4,C   1,C   7)      0.1196         0.026041   
     54. D(H   9,C   4,C   1,C   3)   -179.8943         0.026041   
     55. D(C   6,C   4,C   1,C   7)   -179.9908         0.026041   
     56. D(C   6,C   4,C   1,C   3)     -0.0047         0.026041   
     57. D(H  10,C   5,C   2,N   0)      0.0246         0.026041   
     58. D(C   3,C   5,C   2,C   6)     -0.0142         0.026041   
     59. D(H  10,C   5,C   3,H   8)      0.0800         0.026025   
     60. D(H  10,C   5,C   3,C   1)    179.9711         0.026025   
     61. D(C   2,C   5,C   3,H   8)   -179.8864         0.026025   
     62. D(C   2,C   5,C   3,C   1)      0.0047         0.026025   
     63. D(H  10,C   5,C   2,C   6)   -179.9802         0.026041   
     64. D(C   3,C   5,C   2,N   0)    179.9906         0.026041   
     65. D(H  11,C   6,C   4,H   9)     -0.0800         0.026025   
     66. D(C   2,C   6,C   4,H   9)    179.8864         0.026025   
     67. D(C   2,C   6,C   4,C   1)     -0.0047         0.026025   
     68. D(H  11,C   6,C   2,C   5)    179.9802         0.026034   
     69. D(H  11,C   6,C   2,N   0)     -0.0246         0.026034   
     70. D(H  11,C   6,C   4,C   1)   -179.9711         0.026025   
     71. D(C   4,C   6,C   2,C   5)      0.0142         0.026034   
     72. D(C   4,C   6,C   2,N   0)   -179.9906         0.026034   
     73. D(H  13,C   7,C   1,C   3)    -30.3008         0.013696   
     74. D(H  12,C   7,C   1,C   4)     30.6473         0.013696   
     75. D(H  12,C   7,C   1,C   3)   -149.3387         0.013696   
     76. D(H  14,C   7,C   1,C   3)     90.1769         0.013696   
     77. D(H  13,C   7,C   1,C   4)    149.6853         0.013696   
    -----------------------------------------------------------------

Number of atoms                         .... 17
Number of degrees of freedom            .... 77


         *************************************************************
         *                GEOMETRY OPTIMIZATION CYCLE   1            *
         *************************************************************
---------------------------------
CARTESIAN COORDINATES (ANGSTROEM)
---------------------------------
  N     -2.815400    0.000300   -0.000100
  C      1.384800    0.000000   -0.000100
  C     -1.405000   -0.000200    0.000000
  C      0.687400   -1.208000    0.000000
  C      0.687300    1.207900    0.000000
  C     -0.707500   -1.208100    0.000100
  C     -0.707600    1.207800    0.000100
  C      2.876100    0.000200    0.000000
  H      1.219500   -2.155600   -0.001800
  H      1.219300    2.155600   -0.001800
  H     -1.239500   -2.156000   -0.000300
  H     -1.239700    2.155800   -0.000300
  H      3.271000    0.879100    0.520900
  H      3.271500   -0.881600    0.515500
  H      3.251800    0.003300   -1.027900
  H     -3.321300    0.875900   -0.000900
  H     -3.321900   -0.875100   -0.000900

----------------------------
CARTESIAN COORDINATES (A.U.)
----------------------------
  NO LB      ZA    FRAG     MASS         X           Y           Z
   0 N     7.0000    0    14.007   -5.320335    0.000567   -0.000189
   1 C     6.0000    0    12.011    2.616893    0.000000   -0.000189
   2 C     6.0000    0    12.011   -2.655065   -0.000378    0.000000
   3 C     6.0000    0    12.011    1.298998   -2.282789    0.000000
   4 C     6.0000    0    12.011    1.298809    2.282600    0.000000
   5 C     6.0000    0    12.011   -1.336981   -2.282978    0.000189
   6 C     6.0000    0    12.011   -1.337170    2.282411    0.000189
   7 C     6.0000    0    12.011    5.435041    0.000378    0.000000
   8 H     1.0000    0     1.008    2.304521   -4.073494   -0.003402
   9 H     1.0000    0     1.008    2.304143    4.073494   -0.003402
  10 H     1.0000    0     1.008   -2.342316   -4.074250   -0.000567
  11 H     1.0000    0     1.008   -2.342693    4.073872   -0.000567
  12 H     1.0000    0     1.008    6.181294    1.661258    0.984358
  13 H     1.0000    0     1.008    6.182239   -1.665983    0.974154
  14 H     1.0000    0     1.008    6.145011    0.006236   -1.942449
  15 H     1.0000    0     1.008   -6.276347    1.655211   -0.001701
  16 H     1.0000    0     1.008   -6.277481   -1.653699   -0.001701

--------------------------------
INTERNAL COORDINATES (ANGSTROEM)
--------------------------------
 N      0   0   0     0.000000000000     0.00000000     0.00000000
 C      1   0   0     4.200200010714     0.00000000     0.00000000
 C      1   2   0     1.410400092172     0.01672053     0.00000000
 C      2   1   3     1.394858691768    60.00548425    14.05641908
 C      2   1   3     1.394822092598    59.99168828   194.06590553
 C      3   1   5     1.394822092598   120.02453150   180.00463319
 C      3   1   6     1.394858691768   119.97829647   180.00479535
 C      2   1   3     1.491300016764   179.98761276   212.12991493
 H      4   2   1     1.086774774275   120.68608770   179.88484212
 H      5   2   1     1.086813015196   120.68765444   180.11515738
 H      6   3   1     1.086986002670   120.69286536     0.02463928
 H      7   3   1     1.087122150450   120.69646006   359.97536489
 H      8   2   5     1.095330100928   111.14135363    30.64733869
 H      8   2   5     1.095286560677   111.15701439   149.68528088
 H      8   2   5     1.094412403987   110.07358042   270.16302180
 H      1   2   5     1.011242211342   120.02234041     0.05709458
 H      1   2   5     1.011369393446   120.04925565   179.95238502

---------------------------
INTERNAL COORDINATES (A.U.)
---------------------------
 N      0   0   0     0.000000000000     0.00000000     0.00000000
 C      1   0   0     7.937227727942     0.00000000     0.00000000
 C      1   2   0     2.665269913463     0.01672053     0.00000000
 C      2   1   3     2.635900922961    60.00548425    14.05641908
 C      2   1   3     2.635831760554    59.99168828   194.06590553
 C      3   1   5     2.635831760554   120.02453150   180.00463319
 C      3   1   6     2.635900922961   119.97829647   180.00479535
 C      2   1   3     2.818148615196   179.98761276   212.12991493
 H      4   2   1     2.053706692633   120.68608770   179.88484212
 H      5   2   1     2.053778957502   120.68765444   180.11515738
 H      6   3   1     2.054105856452   120.69286536     0.02463928
 H      7   3   1     2.054363138471   120.69646006   359.97536489
 H      8   2   5     2.069873916995   111.14135363    30.64733869
 H      8   2   5     2.069791637844   111.15701439   149.68528088
 H      8   2   5     2.068139721101   110.07358042   270.16302180
 H      1   2   5     1.910970834497   120.02234041     0.05709458
 H      1   2   5     1.911211173844   120.04925565   179.95238502

---------------------
BASIS SET INFORMATION
---------------------
There are 3 groups of distinct atoms

 Group   1 Type N   : 7s4p1d contracted to 3s2p1d pattern {511/31/1}
 Group   2 Type C   : 7s4p1d contracted to 3s2p1d pattern {511/31/1}
 Group   3 Type H   : 4s1p contracted to 2s1p pattern {31/1}

Atom   0N    basis set group =>   1
Atom   1C    basis set group =>   2
Atom   2C    basis set group =>   2
Atom   3C    basis set group =>   2
Atom   4C    basis set group =>   2
Atom   5C    basis set group =>   2
Atom   6C    basis set group =>   2
Atom   7C    basis set group =>   2
Atom   8H    basis set group =>   3
Atom   9H    basis set group =>   3
Atom  10H    basis set group =>   3
Atom  11H    basis set group =>   3
Atom  12H    basis set group =>   3
Atom  13H    basis set group =>   3
Atom  14H    basis set group =>   3
Atom  15H    basis set group =>   3
Atom  16H    basis set group =>   3
---------------------------------
AUXILIARY/J BASIS SET INFORMATION
---------------------------------
There are 3 groups of distinct atoms

 Group   1 Type N   : 12s5p4d2f1g contracted to 6s4p3d1f1g pattern {711111/2111/211/2/1}
 Group   2 Type C   : 12s5p4d2f1g contracted to 6s4p3d1f1g pattern {711111/2111/211/2/1}
 Group   3 Type H   : 5s2p1d contracted to 3s1p1d pattern {311/2/1}

Atom   0N    basis set group =>   1
Atom   1C    basis set group =>   2
Atom   2C    basis set group =>   2
Atom   3C    basis set group =>   2
Atom   4C    basis set group =>   2
Atom   5C    basis set group =>   2
Atom   6C    basis set group =>   2
Atom   7C    basis set group =>   2
Atom   8H    basis set group =>   3
Atom   9H    basis set group =>   3
Atom  10H    basis set group =>   3
Atom  11H    basis set group =>   3
Atom  12H    basis set group =>   3
Atom  13H    basis set group =>   3
Atom  14H    basis set group =>   3
Atom  15H    basis set group =>   3
Atom  16H    basis set group =>   3


           ************************************************************
           *        Program running with 4 parallel MPI-processes     *
           *              working on a common directory               *
           ************************************************************
------------------------------------------------------------------------------
                             ORCA STARTUP CALCULATIONS
                           -- RI-GTO INTEGRALS CHOSEN --
------------------------------------------------------------------------------
------------------------------------------------------------------------------
                   ___                                                        
                  /   \      - P O W E R E D   B Y -                         
                 /     \                                                     
                 |  |  |   _    _      __       _____    __    __             
                 |  |  |  | |  | |    /  \     |  _  \  |  |  /  |          
                  \  \/   | |  | |   /    \    | | | |  |  | /  /          
                 / \  \   | |__| |  /  /\  \   | |_| |  |  |/  /          
                |  |  |   |  __  | /  /__\  \  |    /   |      \           
                |  |  |   | |  | | |   __   |  |    \   |  |\   \          
                \     /   | |  | | |  |  |  |  | |\  \  |  | \   \       
                 \___/    |_|  |_| |__|  |__|  |_| \__\ |__|  \__/        
                                                                              
                      - O R C A' S   B I G   F R I E N D -                    
                                      &                                       
                       - I N T E G R A L  F E E D E R -                       
                                                                              
 v1 FN, 2020, v2 2021, v3 2022-2024                                           
------------------------------------------------------------------------------


----------------------
SHARK INTEGRAL PACKAGE
----------------------

Number of atoms                             ...     17
Number of basis functions                   ...    157
Number of shells                            ...     75
Maximum angular momentum                    ...      2
Integral batch strategy                     ... SHARK/LIBINT Hybrid
RI-J (if used) integral strategy            ... SPLIT-RIJ (Revised 2003 algorithm where possible)
Printlevel                                  ...      1
Contraction scheme used                     ... SEGMENTED contraction
Prescreening option                         ... SCHWARTZ
   Thresh                                   ... 2.500e-11
   Tcut                                     ... 2.500e-12
   Tpresel                                  ... 2.500e-12 
Coulomb Range Separation                    ... NOT USED
Exchange Range Separation                   ... NOT USED
Multipole approximations                    ... NOT USED
Finite Nucleus Model                        ... NOT USED
CABS basis                                  ... NOT available
Auxiliary Coulomb fitting basis             ... AVAILABLE
   # of basis functions in Aux-J            ...    491
   # of shells in Aux-J                     ...    165
   Maximum angular momentum in Aux-J        ...      4
Auxiliary J/K fitting basis                 ... NOT available
Auxiliary Correlation fitting basis         ... NOT available
Auxiliary 'external' fitting basis          ... NOT available

Checking pre-screening integrals            ... done (  0.0 sec) Dimension = 75
Check shell pair data                       ... done (  0.0 sec)
Shell pair information
Shell pair cut-off parameter TPreSel        ...   2.5e-12
Total number of shell pairs                 ...      2850
Shell pairs after pre-screening             ...      2667
Total number of primitive shell pairs       ...     10142
Primitive shell pairs kept                  ...      7051
          la=0 lb=0:    848 shell pairs
          la=1 lb=0:    982 shell pairs
          la=1 lb=1:    301 shell pairs
          la=2 lb=0:    315 shell pairs
          la=2 lb=1:    186 shell pairs
          la=2 lb=2:     35 shell pairs

Calculating one electron integrals          ... done (  0.0 sec)
Calculating RI/J V-Matrix + Cholesky decomp.... done (  0.0 sec)
Calculating Nuclear repulsion               ... done (  0.0 sec) ENN=    342.994133725992 Eh

Diagonalization of the overlap matrix:
Smallest eigenvalue                        ... 2.614e-04
Time for diagonalization                   ...    0.002 sec
Threshold for overlap eigenvalues          ... 1.000e-07
Number of eigenvalues below threshold      ... 0
Time for construction of square roots      ...    0.205 sec
Total time needed                          ...    0.208 sec

-------------------
DFT GRID GENERATION
-------------------

General Integration Accuracy     IntAcc      ... 4.388
Radial Grid Type                 RadialGrid  ... OptM3 with GC (2021)
Angular Grid (max. ang.)         AngularGrid ... 4 (Lebedev-302)
Angular grid pruning method      GridPruning ... 4 (adaptive)
Weight generation scheme         WeightScheme... mBecke (2022)
Basis function cutoff            BFCut       ... 1.0000e-11
Integration weight cutoff        WCut        ... 1.0000e-14
Partially contracted basis set               ... off
Rotationally invariant grid construction     ... off
Angular grids for H and He will be reduced by one unit

Total number of grid points                  ...    77055
Total number of batches                      ...     1212
Average number of points per batch           ...       63
Average number of grid points per atom       ...     4533

--------------------
COSX GRID GENERATION
--------------------

GRIDX 1
-------
General Integration Accuracy     IntAcc      ... 3.816
Radial Grid Type                 RadialGrid  ... OptM3 with GC (2021)
Angular Grid (max. ang.)         AngularGrid ... 1 (Lebedev-50)
Angular grid pruning method      GridPruning ... 4 (adaptive)
Weight generation scheme         WeightScheme... mBecke (2022)
Basis function cutoff            BFCut       ... 1.0000e-11
Integration weight cutoff        WCut        ... 1.0000e-14
Partially contracted basis set               ... on
Rotationally invariant grid construction     ... off
Angular grids for H and He will be reduced by one unit

Total number of grid points                  ...     9900
Total number of batches                      ...       86
Average number of points per batch           ...      115
Average number of grid points per atom       ...      582
UseSFitting                                  ... on

GRIDX 2
-------
General Integration Accuracy     IntAcc      ... 4.020
Radial Grid Type                 RadialGrid  ... OptM3 with GC (2021)
Angular Grid (max. ang.)         AngularGrid ... 2 (Lebedev-110)
Angular grid pruning method      GridPruning ... 4 (adaptive)
Weight generation scheme         WeightScheme... mBecke (2022)
Basis function cutoff            BFCut       ... 1.0000e-11
Integration weight cutoff        WCut        ... 1.0000e-14
Partially contracted basis set               ... on
Rotationally invariant grid construction     ... off
Angular grids for H and He will be reduced by one unit

Total number of grid points                  ...    21200
Total number of batches                      ...      173
Average number of points per batch           ...      122
Average number of grid points per atom       ...     1247
UseSFitting                                  ... on

GRIDX 3
-------
General Integration Accuracy     IntAcc      ... 4.338
Radial Grid Type                 RadialGrid  ... OptM3 with GC (2021)
Angular Grid (max. ang.)         AngularGrid ... 3 (Lebedev-194)
Angular grid pruning method      GridPruning ... 4 (adaptive)
Weight generation scheme         WeightScheme... mBecke (2022)
Basis function cutoff            BFCut       ... 1.0000e-11
Integration weight cutoff        WCut        ... 1.0000e-14
Partially contracted basis set               ... on
Rotationally invariant grid construction     ... off
Angular grids for H and He will be reduced by one unit

Total number of grid points                  ...    46522
Total number of batches                      ...      371
Average number of points per batch           ...      125
Average number of grid points per atom       ...     2737
UseSFitting                                  ... on
Initializing property integral containers    ... done (  0.0 sec)

SHARK setup successfully completed in   1.1 seconds

Maximum memory used throughout the entire STARTUP-calculation: 21.6 MB


           ************************************************************
           *        Program running with 4 parallel MPI-processes     *
           *              working on a common directory               *
           ************************************************************
-------------------------------------------------------------------------------
                                 ORCA GUESS
                   Start orbitals & Density for SCF / CASSCF
-------------------------------------------------------------------------------

------------
SCF SETTINGS
------------
Hamiltonian:
 Density Functional     Method          .... DFT(GTOs)
 Exchange Functional    Exchange        .... B88
   X-Alpha parameter    XAlpha          ....  0.666667
   Becke's b parameter  XBeta           ....  0.004200
 Correlation Functional Correlation     .... LYP
 LDA part of GGA corr.  LDAOpt          .... VWN-5
 Gradients option       PostSCFGGA      .... off
 Hybrid DFT is turned on
   Fraction HF Exchange ScalHFX         ....  0.200000
   Scaling of DF-GGA-X  ScalDFX         ....  0.720000
   Scaling of DF-GGA-C  ScalDFC         ....  0.810000
   Scaling of DF-LDA-C  ScalLDAC        ....  1.000000
   Perturbative correction              ....  0.000000
   NL short-range parameter             ....  4.800000
 RI-approximation to the Coulomb term is turned on
   Number of AuxJ basis functions       .... 491
   RIJ-COSX (HFX calculated with COS-X)).... on


General Settings:
 Integral files         IntName         .... p_toluidine_2
 Hartree-Fock type      HFTyp           .... RHF
 Total Charge           Charge          ....    0
 Multiplicity           Mult            ....    1
 Number of Electrons    NEL             ....   58
 Basis Dimension        Dim             ....  157
 Nuclear Repulsion      ENuc            ....    342.9941337260 Eh

Convergence Acceleration:
 AO-DIIS                CNVDIIS         .... on
   Start iteration      DIISMaxIt       ....    12
   Startup error        DIISStart       ....  0.200000
   # of expansion vecs  DIISMaxEq       ....     5
   Bias factor          DIISBfac        ....   1.050
   Max. coefficient     DIISMaxC        ....  10.000
 MO-DIIS                CNVKDIIS        .... off
 Trust-Rad. Augm. Hess. CNVTRAH         .... auto
   Auto Start mean grad. ratio tolernc. ....  1.125000
   Auto Start start iteration           ....    50
   Auto Start num. interpolation iter.  ....    10
   Max. Number of Micro iterations      ....    24
   Max. Number of Macro iterations      .... Maxiter - #DIIS iter
   Number of Davidson start vectors     ....     2
   Converg. threshold    (grad. norm)   ....   1.000e-05
   Grad. Scal. Fac. for Micro threshold ....   0.100
   Minimum threshold for Micro iter.    ....   1.000e-02
   NR start threshold (gradient norm)   ....   1.000e-04
   Initial trust radius                 ....   0.400
   Minimum AH scaling param. (alpha)    ....   1.000
   Maximum AH scaling param. (alpha)    .... 1000.000
   Quad. conv. algorithm                .... NR
   White noise on init. David. guess    .... on
   Maximum white noise                  ....   0.010
   Pseudo random numbers                .... off
   Inactive MOs                         .... canonical
   Orbital update algorithm             .... Taylor
   Preconditioner                       .... Diag
   Full preconditioner red. dimension   ....   250
 SOSCF                  CNVSOSCF        .... on
   Start iteration      SOSCFMaxIt      ....   150
   Startup grad/error   SOSCFStart      ....  0.003300
   Hessian update       SOSCFHessUp     .... L-BFGS
 Level Shifting         CNVShift        .... on
   Level shift para.    LevelShift      ....    0.2500
   Turn off err/grad.   ShiftErr        ....    0.0010
 Zerner damping         CNVZerner       .... off
 Static damping         CNVDamp         .... on
   Fraction old density DampFac         ....    0.7000
   Max. Damping (<1)    DampMax         ....    0.9800
   Min. Damping (>=0)   DampMin         ....    0.0000
   Turn off err/grad.   DampErr         ....    0.1000

SCF Procedure:
 Maximum # iterations   MaxIter         ....   125
 SCF integral mode      SCFMode         .... Direct
   Integral package                     .... SHARK and LIBINT hybrid scheme
 Reset frequency        DirectResetFreq ....    20
 Integral Threshold     Thresh          ....  2.500e-11 Eh
 Primitive CutOff       TCut            ....  2.500e-12 Eh

Convergence Tolerance:
 Convergence Check Mode ConvCheckMode   .... Total+1el-Energy
 Convergence forced     ConvForced      .... 0
 Energy Change          TolE            ....  1.000e-08 Eh
 1-El. energy change                    ....  1.000e-05 Eh
 Orbital Gradient       TolG            ....  1.000e-05
 Orbital Rotation angle TolX            ....  1.000e-05
 DIIS Error             TolErr          ....  5.000e-07

------------------------------
INITIAL GUESS: MODEL POTENTIAL
------------------------------
Loading Hartree-Fock densities                     ... done
Calculating cut-offs                               ... done
Initializing the effective Hamiltonian             ... done
Setting up the integral package (SHARK)            ... done
Starting the Coulomb interaction                   ... done (   0.0 sec)
Making the grid                                    ... done (   0.1 sec)
Mapping shells                                     ... done
Starting the XC term evaluation                    ... done (   0.0 sec)
  promolecular density results
     # of electrons  =     57.996132383
     EX              =    -45.248502781
     EC              =     -1.916339926
     EX+EC           =    -47.164842707
Transforming the Hamiltonian                       ... done (   0.0 sec)
Diagonalizing the Hamiltonian                      ... done (   0.0 sec)
Back transforming the eigenvectors                 ... done (   0.0 sec)
Now organizing SCF variables                       ... done
                      ------------------
                      INITIAL GUESS DONE (   0.2 sec)
                      ------------------
             **** ENERGY FILE WAS UPDATED (p_toluidine_2.en.tmp) ****
Finished Guess after   0.4 sec
Maximum memory used throughout the entire GUESS-calculation: 12.2 MB


           ************************************************************
           *        Program running with 4 parallel MPI-processes     *
           *              working on a common directory               *
           ************************************************************

-------------------------------------------------------------------------------------------
                                      ORCA LEAN-SCF
                              memory conserving SCF solver
-------------------------------------------------------------------------------------------

----------------------------------------D-I-I-S--------------------------------------------
Iteration    Energy (Eh)           Delta-E    RMSDP     MaxDP     DIISErr   Damp  Time(sec)
-------------------------------------------------------------------------------------------
               ***  Starting incremental Fock matrix formation  ***
    1    -326.2343809821135778     0.00e+00  4.17e-03  8.10e-02  2.36e-01  0.700   0.9
    2    -326.3427046638256002    -1.08e-01  2.91e-03  4.91e-02  1.15e-01  0.700   0.6
                               ***Turning on AO-DIIS***
    3    -326.3890929248792077    -4.64e-02  1.26e-03  1.78e-02  4.13e-02  0.700   0.5
    4    -326.4156193335439298    -2.65e-02  2.33e-03  3.65e-02  2.37e-02  0.000   0.5
    5    -326.4723150929475537    -5.67e-02  3.21e-04  4.82e-03  5.25e-03  0.000   0.5
                              *** Initializing SOSCF ***
---------------------------------------S-O-S-C-F--------------------------------------
Iteration    Energy (Eh)           Delta-E    RMSDP     MaxDP     MaxGrad    Time(sec)
--------------------------------------------------------------------------------------
    6    -326.4726216075912930    -3.07e-04  1.31e-04  2.12e-03  2.50e-03     0.5
               *** Restarting incremental Fock matrix formation ***
    7    -326.4725493785369395     7.22e-05  8.42e-05  1.27e-03  2.64e-04     0.9
    8    -326.4725484968235492     8.82e-07  3.11e-05  6.50e-04  4.35e-04     0.7
    9    -326.4725521653522833    -3.67e-06  1.82e-05  3.10e-04  1.03e-04     0.7
   10    -326.4725520577179054     1.08e-07  9.68e-06  1.50e-04  9.68e-05     0.7
   11    -326.4725523407524292    -2.83e-07  2.53e-06  9.43e-05  1.61e-05     0.6
   12    -326.4725523377587137     2.99e-09  1.49e-06  5.44e-05  2.21e-05     0.6
                 **** Energy Check signals convergence ****

               *****************************************************
               *                     SUCCESS                       *
               *           SCF CONVERGED AFTER  12 CYCLES          *
               *****************************************************

Recomputing exchange energy using gridx3       ... done (    1.346 sec)
Old exchange energy                            :     -9.211658586 Eh
New exchange energy                            :     -9.211669353 Eh
Exchange energy change after final integration :     -0.000010767 Eh
Total energy after final integration           :   -326.472563104 Eh
             **** ENERGY FILE WAS UPDATED (p_toluidine_2.en.tmp) ****

----------------
TOTAL SCF ENERGY
----------------

Total Energy       :       -326.47256310432476 Eh           -8883.77008 eV

Components:
Nuclear Repulsion  :        342.99413372599219 Eh            9333.34488 eV
Electronic Energy  :       -669.46668606375090 Eh          -18217.11467 eV
One Electron Energy:      -1119.44402303080915 Eh          -30461.62051 eV
Two Electron Energy:        449.97733696705825 Eh           12244.50584 eV

Virial components:
Potential Energy   :       -649.48642685374739 Eh          -17673.42417 eV
Kinetic Energy     :        323.01386374942257 Eh            8789.65409 eV
Virial Ratio       :          2.01070758794918

DFT components:
N(Alpha)           :       29.000000139801 electrons
N(Beta)            :       29.000000139801 electrons
N(Total)           :       58.000000279603 electrons
E(X)               :      -36.557226062120 Eh       
E(C)               :       -2.268938516879 Eh       
E(XC)              :      -38.826164578999 Eh       

---------------
SCF CONVERGENCE
---------------

  Last Energy change         ...   -2.9937e-09  Tolerance :   1.0000e-08
  Last MAX-Density change    ...    5.4418e-05  Tolerance :   1.0000e-07
  Last RMS-Density change    ...    1.4929e-06  Tolerance :   5.0000e-09
  Last DIIS Error            ...    2.5013e-03  Tolerance :   5.0000e-07
  Last Orbital Gradient      ...    2.2111e-05  Tolerance :   1.0000e-05
  Last Orbital Rotation      ...    2.8890e-05  Tolerance :   1.0000e-05


----------------
ORBITAL ENERGIES
----------------

  NO   OCC          E(Eh)            E(eV) 
   0   2.0000     -14.321620      -389.7111 
   1   2.0000     -10.215143      -277.9682 
   2   2.0000     -10.172147      -276.7982 
   3   2.0000     -10.172135      -276.7979 
   4   2.0000     -10.169080      -276.7147 
   5   2.0000     -10.169067      -276.7144 
   6   2.0000     -10.168407      -276.6964 
   7   2.0000     -10.167319      -276.6668 
   8   2.0000      -0.889725       -24.2106 
   9   2.0000      -0.822740       -22.3879 
  10   2.0000      -0.739447       -20.1214 
  11   2.0000      -0.725910       -19.7530 
  12   2.0000      -0.655326       -17.8323 
  13   2.0000      -0.600917       -16.3518 
  14   2.0000      -0.566819       -15.4239 
  15   2.0000      -0.509289       -13.8585 
  16   2.0000      -0.507649       -13.8138 
  17   2.0000      -0.447898       -12.1879 
  18   2.0000      -0.436033       -11.8651 
  19   2.0000      -0.414958       -11.2916 
  20   2.0000      -0.410881       -11.1806 
  21   2.0000      -0.410453       -11.1690 
  22   2.0000      -0.368019       -10.0143 
  23   2.0000      -0.366554        -9.9744 
  24   2.0000      -0.338784        -9.2188 
  25   2.0000      -0.332535        -9.0487 
  26   2.0000      -0.288231        -7.8432 
  27   2.0000      -0.242121        -6.5884 
  28   2.0000      -0.186597        -5.0776 
  29   0.0000       0.003404         0.0926 
  30   0.0000       0.027936         0.7602 
  31   0.0000       0.059915         1.6304 
  32   0.0000       0.076685         2.0867 
  33   0.0000       0.090810         2.4711 
  34   0.0000       0.098530         2.6811 
  35   0.0000       0.124614         3.3909 
  36   0.0000       0.137212         3.7337 
  37   0.0000       0.154530         4.2050 
  38   0.0000       0.157972         4.2986 
  39   0.0000       0.175295         4.7700 
*Only the first 10 virtual orbitals were printed.

                    ********************************
                    * MULLIKEN POPULATION ANALYSIS *
                    ********************************

-----------------------
MULLIKEN ATOMIC CHARGES
-----------------------
   0 N :   -0.121104
   1 C :   -0.041576
   2 C :    0.127776
   3 C :   -0.012707
   4 C :   -0.012779
   5 C :   -0.033700
   6 C :   -0.033772
   7 C :    0.091812
   8 H :   -0.042777
   9 H :   -0.042774
  10 H :   -0.055697
  11 H :   -0.055609
  12 H :    0.002612
  13 H :    0.002440
  14 H :    0.019570
  15 H :    0.104122
  16 H :    0.104163
Sum of atomic charges:    0.0000000

--------------------------------
MULLIKEN REDUCED ORBITAL CHARGES
--------------------------------
  0 N s       :     3.294165  s :     3.294165
      pz      :     1.793041  p :     3.812970
      px      :     1.048082
      py      :     0.971847
      dz2     :     0.001765  d :     0.013970
      dxz     :     0.002244
      dyz     :     0.000028
      dx2y2   :     0.004039
      dxy     :     0.005893

  1 C s       :     3.051624  s :     3.051624
      pz      :     1.024177  p :     2.946446
      px      :     0.968043
      py      :     0.954227
      dz2     :     0.003037  d :     0.043505
      dxz     :     0.006283
      dyz     :     0.006338
      dx2y2   :     0.013794
      dxy     :     0.014053

  2 C s       :     2.958636  s :     2.958636
      pz      :     0.956461  p :     2.853135
      px      :     0.879332
      py      :     1.017342
      dz2     :     0.004294  d :     0.060453
      dxz     :     0.015333
      dyz     :     0.006895
      dx2y2   :     0.019252
      dxy     :     0.014679

  3 C s       :     3.219036  s :     3.219036
      pz      :     0.993182  p :     2.757910
      px      :     0.904620
      py      :     0.860108
      dz2     :     0.002570  d :     0.035760
      dxz     :     0.006422
      dyz     :     0.003487
      dx2y2   :     0.011169
      dxy     :     0.012112

  4 C s       :     3.219128  s :     3.219128
      pz      :     0.993138  p :     2.757892
      px      :     0.904742
      py      :     0.860011
      dz2     :     0.002570  d :     0.035759
      dxz     :     0.006422
      dyz     :     0.003487
      dx2y2   :     0.011168
      dxy     :     0.012111

  5 C s       :     3.227732  s :     3.227732
      pz      :     1.067824  p :     2.772775
      px      :     0.882204
      py      :     0.822748
      dz2     :     0.002636  d :     0.033194
      dxz     :     0.005349
      dyz     :     0.003152
      dx2y2   :     0.009561
      dxy     :     0.012496

  6 C s       :     3.227653  s :     3.227653
      pz      :     1.067755  p :     2.772928
      px      :     0.882323
      py      :     0.822850
      dz2     :     0.002636  d :     0.033191
      dxz     :     0.005349
      dyz     :     0.003151
      dx2y2   :     0.009562
      dxy     :     0.012493

  7 C s       :     2.917747  s :     2.917747
      pz      :     0.996476  p :     2.960705
      px      :     0.975298
      py      :     0.988931
      dz2     :     0.005795  d :     0.029737
      dxz     :     0.006611
      dyz     :     0.004798
      dx2y2   :     0.007148
      dxy     :     0.005385

  8 H s       :     1.019738  s :     1.019738
      pz      :     0.004889  p :     0.023040
      px      :     0.006189
      py      :     0.011961

  9 H s       :     1.019736  s :     1.019736
      pz      :     0.004889  p :     0.023038
      px      :     0.006187
      py      :     0.011962

 10 H s       :     1.032418  s :     1.032418
      pz      :     0.005429  p :     0.023279
      px      :     0.005927
      py      :     0.011923

 11 H s       :     1.032336  s :     1.032336
      pz      :     0.005426  p :     0.023273
      px      :     0.005926
      py      :     0.011921

 12 H s       :     0.973896  s :     0.973896
      pz      :     0.007266  p :     0.023493
      px      :     0.005424
      py      :     0.010803

 13 H s       :     0.974070  s :     0.974070
      pz      :     0.007224  p :     0.023491
      px      :     0.005425
      py      :     0.010841

 14 H s       :     0.956424  s :     0.956424
      pz      :     0.012983  p :     0.024006
      px      :     0.005659
      py      :     0.005364

 15 H s       :     0.851066  s :     0.851066
      pz      :     0.013964  p :     0.044812
      px      :     0.011109
      py      :     0.019739

 16 H s       :     0.851035  s :     0.851035
      pz      :     0.013959  p :     0.044802
      px      :     0.011115
      py      :     0.019728



                     *******************************
                     * LOEWDIN POPULATION ANALYSIS *
                     *******************************

----------------------
LOEWDIN ATOMIC CHARGES
----------------------
   0 N :   -0.048617
   1 C :   -0.059092
   2 C :    0.030748
   3 C :   -0.020520
   4 C :   -0.020512
   5 C :   -0.065637
   6 C :   -0.065596
   7 C :   -0.043480
   8 H :    0.021359
   9 H :    0.021366
  10 H :    0.017578
  11 H :    0.017596
  12 H :    0.024629
  13 H :    0.024581
  14 H :    0.029112
  15 H :    0.068221
  16 H :    0.068263

-------------------------------
LOEWDIN REDUCED ORBITAL CHARGES
-------------------------------
  0 N s       :     3.028078  s :     3.028078
      pz      :     1.717264  p :     3.982476
      px      :     1.130353
      py      :     1.134859
      dz2     :     0.002710  d :     0.038063
      dxz     :     0.004278
      dyz     :     0.000032
      dx2y2   :     0.013074
      dxy     :     0.017969

  1 C s       :     2.845117  s :     2.845117
      pz      :     0.997141  p :     3.104707
      px      :     1.031803
      py      :     1.075762
      dz2     :     0.007334  d :     0.109268
      dxz     :     0.011216
      dyz     :     0.013530
      dx2y2   :     0.039058
      dxy     :     0.038130

  2 C s       :     2.834656  s :     2.834656
      pz      :     0.950069  p :     2.990134
      px      :     0.941915
      py      :     1.098150
      dz2     :     0.009290  d :     0.144462
      dxz     :     0.031804
      dyz     :     0.014420
      dx2y2   :     0.050774
      dxy     :     0.038173

  3 C s       :     2.856921  s :     2.856921
      pz      :     0.977255  p :     3.070437
      px      :     1.053542
      py      :     1.039640
      dz2     :     0.006183  d :     0.093161
      dxz     :     0.013735
      dyz     :     0.006886
      dx2y2   :     0.032261
      dxy     :     0.034096

  4 C s       :     2.856923  s :     2.856923
      pz      :     0.977225  p :     3.070428
      px      :     1.053555
      py      :     1.039648
      dz2     :     0.006183  d :     0.093161
      dxz     :     0.013733
      dyz     :     0.006886
      dx2y2   :     0.032263
      dxy     :     0.034096

  5 C s       :     2.854393  s :     2.854393
      pz      :     1.043149  p :     3.122773
      px      :     1.055385
      py      :     1.024240
      dz2     :     0.006406  d :     0.088471
      dxz     :     0.011282
      dyz     :     0.005926
      dx2y2   :     0.029363
      dxy     :     0.035494

  6 C s       :     2.854444  s :     2.854444
      pz      :     1.043078  p :     3.122690
      px      :     1.055394
      py      :     1.024217
      dz2     :     0.006405  d :     0.088462
      dxz     :     0.011282
      dyz     :     0.005926
      dx2y2   :     0.029363
      dxy     :     0.035487

  7 C s       :     2.826507  s :     2.826507
      pz      :     1.060239  p :     3.140763
      px      :     1.023096
      py      :     1.057428
      dz2     :     0.015014  d :     0.076211
      dxz     :     0.015720
      dyz     :     0.012619
      dx2y2   :     0.019448
      dxy     :     0.013410

  8 H s       :     0.911362  s :     0.911362
      pz      :     0.014689  p :     0.067280
      px      :     0.018252
      py      :     0.034339

  9 H s       :     0.911362  s :     0.911362
      pz      :     0.014685  p :     0.067272
      px      :     0.018247
      py      :     0.034340

 10 H s       :     0.913622  s :     0.913622
      pz      :     0.016725  p :     0.068800
      px      :     0.017893
      py      :     0.034182

 11 H s       :     0.913629  s :     0.913629
      pz      :     0.016714  p :     0.068775
      px      :     0.017886
      py      :     0.034174

 12 H s       :     0.910823  s :     0.910823
      pz      :     0.018605  p :     0.064547
      px      :     0.016111
      py      :     0.029832

 13 H s       :     0.910872  s :     0.910872
      pz      :     0.018480  p :     0.064548
      px      :     0.016118
      py      :     0.029950

 14 H s       :     0.905344  s :     0.905344
      pz      :     0.036574  p :     0.065544
      px      :     0.016503
      py      :     0.012468

 15 H s       :     0.807693  s :     0.807693
      pz      :     0.044229  p :     0.124086
      px      :     0.027639
      py      :     0.052218

 16 H s       :     0.807694  s :     0.807694
      pz      :     0.044208  p :     0.124043
      px      :     0.027657
      py      :     0.052178



                      *****************************
                      * MAYER POPULATION ANALYSIS *
                      *****************************

  NA   - Mulliken gross atomic population
  ZA   - Total nuclear charge
  QA   - Mulliken gross atomic charge
  VA   - Mayer's total valence
  BVA  - Mayer's bonded valence
  FA   - Mayer's free valence

  ATOM       NA         ZA         QA         VA         BVA        FA
  0 N      7.1211     7.0000    -0.1211     3.1573     3.1573    -0.0000
  1 C      6.0416     6.0000    -0.0416     3.9497     3.9497     0.0000
  2 C      5.8722     6.0000     0.1278     4.0177     4.0177     0.0000
  3 C      6.0127     6.0000    -0.0127     3.8715     3.8715     0.0000
  4 C      6.0128     6.0000    -0.0128     3.8717     3.8717     0.0000
  5 C      6.0337     6.0000    -0.0337     3.7783     3.7783    -0.0000
  6 C      6.0338     6.0000    -0.0338     3.7784     3.7784    -0.0000
  7 C      5.9082     6.0000     0.0918     3.9053     3.9053     0.0000
  8 H      1.0428     1.0000    -0.0428     0.9834     0.9834     0.0000
  9 H      1.0428     1.0000    -0.0428     0.9834     0.9834     0.0000
 10 H      1.0557     1.0000    -0.0557     0.9832     0.9832    -0.0000
 11 H      1.0556     1.0000    -0.0556     0.9832     0.9832    -0.0000
 12 H      0.9974     1.0000     0.0026     0.9928     0.9928     0.0000
 13 H      0.9976     1.0000     0.0024     0.9929     0.9929     0.0000
 14 H      0.9804     1.0000     0.0196     0.9855     0.9855     0.0000
 15 H      0.8959     1.0000     0.1041     1.0029     1.0029    -0.0000
 16 H      0.8958     1.0000     0.1042     1.0028     1.0028    -0.0000

  Mayer bond orders larger than 0.100000
B(  0-N ,  2-C ) :   1.2048 B(  0-N , 15-H ) :   0.9510 B(  0-N , 16-H ) :   0.9510 
B(  1-C ,  3-C ) :   1.3825 B(  1-C ,  4-C ) :   1.3823 B(  1-C ,  7-C ) :   1.0618 
B(  2-C ,  5-C ) :   1.3261 B(  2-C ,  6-C ) :   1.3259 B(  3-C ,  5-C ) :   1.3796 
B(  3-C ,  8-H ) :   0.9855 B(  4-C ,  6-C ) :   1.3799 B(  4-C ,  9-H ) :   0.9855 
B(  5-C , 10-H ) :   0.9883 B(  6-C , 11-H ) :   0.9883 B(  7-C , 12-H ) :   0.9583 
B(  7-C , 13-H ) :   0.9583 B(  7-C , 14-H ) :   0.9527 

Environment variable NBOEXE for nbo6.exe or nbo5.exe not set! Skipping NBO-Analysis

-------
TIMINGS
-------

Total SCF time: 0 days 0 hours 0 min 9 sec 

Total time                  ....       9.448 sec
Sum of individual times     ....       9.413 sec  ( 99.6%)

SCF preparation             ....       0.268 sec  (  2.8%)
Fock matrix formation       ....       8.997 sec  ( 95.2%)
  Startup                   ....       0.007 sec  (  0.1% of F)
  Split-RI-J                ....       0.745 sec  (  8.3% of F)
  Chain of spheres X        ....       6.422 sec  ( 71.4% of F)
  XC integration            ....       1.794 sec  ( 19.9% of F)
    XC Preparation          ....       0.000 sec  (  0.0% of XC)
    Basis function eval.    ....       0.719 sec  ( 40.1% of XC)
    Density eval.           ....       0.267 sec  ( 14.9% of XC)
    XC-Functional eval.     ....       0.186 sec  ( 10.3% of XC)
    XC-Potential eval.      ....       0.447 sec  ( 24.9% of XC)
Diagonalization             ....       0.000 sec  (  0.0%)
Density matrix formation    ....       0.016 sec  (  0.2%)
Total Energy calculation    ....       0.009 sec  (  0.1%)
Population analysis         ....       0.017 sec  (  0.2%)
Orbital Transformation      ....       0.013 sec  (  0.1%)
Orbital Orthonormalization  ....       0.000 sec  (  0.0%)
DIIS solution               ....       0.061 sec  (  0.6%)
SOSCF solution              ....       0.032 sec  (  0.3%)
Finished LeanSCF after   9.5 sec

Maximum memory used throughout the entire LEANSCF-calculation: 16.9 MB


-------------------------------------------------------------------------------
                          DFT DISPERSION CORRECTION                            
                                                                               
                              DFTD3 V3.1  Rev 1                                
                          USING Becke-Johnson damping                          
-------------------------------------------------------------------------------
The B3LYP functional is recognized
Active option DFTDOPT                   ...         4   

molecular C6(AA) [au] = 2928.098739 


            DFT-D V3
 parameters
 s6 scaling factor         :     1.0000 
 a1 scaling factor         :     0.3981 
 s8 scaling factor         :     1.9889 
 a2 scaling factor         :     4.4211 
 ad hoc parameters k1-k3   :    16.0000     1.3333    -4.0000 

 Edisp/kcal,au: -17.674446870978  -0.028166020939 
 E6   /kcal   :  -8.298063630 
 E8   /kcal   :  -9.376383241 
 % E8         :  53.050504546 

-------------------------   ----------------
Dispersion correction           -0.028166021
-------------------------   ----------------


-------------------------   --------------------
FINAL SINGLE POINT ENERGY      -326.500729125263
-------------------------   --------------------



           ************************************************************
           *        Program running with 4 parallel MPI-processes     *
           *              working on a common directory               *
           ************************************************************
------------------------------------------------------------------------------
                         ORCA SCF GRADIENT CALCULATION
------------------------------------------------------------------------------

Nuc. rep. gradient        (SHARK) ... done (  0.0 sec)
HCore & Overlap gradient  (SHARK) ... done (  0.0 sec)
Split-RIJ-J gradient      (SHARK) ... done (  0.3 sec)
COSX-gradient                     ... done (  5.0 sec)
XC gradient                       ... done (  0.9 sec)
Dispersion correction             ... done (  0.0 sec)

-------------------
DISPERSION GRADIENT
-------------------

   1   N   :   -0.000599849    0.000000119    0.000000006
   2   C   :    0.000445623    0.000000013   -0.000000420
   3   C   :   -0.000487015   -0.000000070    0.000000194
   4   C   :    0.000092744   -0.000552255    0.000004444
   5   C   :    0.000092829    0.000552131    0.000004448
   6   C   :   -0.000199038   -0.000523835   -0.000000427
   7   C   :   -0.000199205    0.000523671   -0.000000429
   8   C   :    0.000602061    0.000000068    0.000000073
   9   H   :    0.000079151   -0.000362489    0.000003253
  10   H   :    0.000079026    0.000362526    0.000003262
  11   H   :   -0.000108650   -0.000337631   -0.000000129
  12   H   :   -0.000108721    0.000337555   -0.000000130
  13   H   :    0.000284588    0.000080099    0.000060765
  14   H   :    0.000284444   -0.000080300    0.000060090
  15   H   :    0.000314503    0.000000301   -0.000134819
  16   H   :   -0.000286193    0.000077604   -0.000000091
  17   H   :   -0.000286299   -0.000077506   -0.000000091

Difference to translation invariance:
           :    0.0000000000   -0.0000000000   -0.0000000000

Difference to rotation invariance:
           :    0.0000000000    0.0000000000    0.0000000000

Norm of the Dispersion gradient    ...    0.0018479882
RMS gradient                       ...    0.0002587701
MAX gradient                       ...    0.0006020607

------------------
CARTESIAN GRADIENT
------------------

   1   N   :   -0.021114082    0.000181986   -0.000124805
   2   C   :   -0.010119095    0.000065118   -0.003244442
   3   C   :    0.041480775   -0.000101373    0.000160068
   4   C   :    0.013424191   -0.005886952    0.000406293
   5   C   :    0.013469278    0.005826879    0.000407702
   6   C   :   -0.011272441    0.005347545    0.000602265
   7   C   :   -0.011332661   -0.005424433    0.000602401
   8   C   :   -0.003997762    0.000001848   -0.002967959
   9   H   :   -0.003331160    0.003108027   -0.000465857
  10   H   :   -0.003319228   -0.003088407   -0.000465943
  11   H   :    0.004082762    0.002874000   -0.000137080
  12   H   :    0.004046219   -0.002785381   -0.000137084
  13   H   :   -0.002836709   -0.003890016    0.000316362
  14   H   :   -0.002816899    0.003902712    0.000312618
  15   H   :   -0.006333563   -0.000032709    0.004762680
  16   H   :    0.000007325    0.003834718   -0.000013494
  17   H   :   -0.000036950   -0.003933561   -0.000013726

Difference to translation invariance:
           :   -0.0000000000    0.0000000000    0.0000000000

Difference to rotation invariance:
           :    0.0000001499   -0.0000992022   -0.0000005714

Norm of the Cartesian gradient     ...    0.0572663861
RMS gradient                       ...    0.0080188980
MAX gradient                       ...    0.0414807751

-------
TIMINGS
-------

Total SCF gradient time     ....        6.307 sec

Densities                   ....       0.000 sec  (  0.0%)
One electron gradient       ....       0.040 sec  (  0.6%)
RI-J Coulomb gradient       ....       0.271 sec  (  4.3%)
COSX gradient               ....       5.022 sec  ( 79.6%)
XC gradient                 ....       0.925 sec  ( 14.7%)

Maximum memory used throughout the entire SCFGRAD-calculation: 29.6 MB
------------------------------------------------------------------------------
                         ORCA GEOMETRY RELAXATION STEP
------------------------------------------------------------------------------

Reading the OPT-File                    .... done
Getting information on internals        .... done
Copying old internal coords+grads       .... done
Making the new internal coordinates     .... (2022 redundants) done
Validating the new internal coordinates .... (2022 redundants) done
Calculating the B-matrix                .... done
Calculating the G,G- and P matrices     .... done
Transforming gradient to internals      .... done
Projecting the internal gradient        .... done
Number of atoms                         ....  17
Number of internal coordinates          ....  77
Current Energy                          ....  -326.500729125 Eh
Current gradient norm                   ....     0.057266386 Eh/bohr
Maximum allowed component of the step   ....  0.300
Current trust radius                    ....  0.300
Evaluating the initial hessian          ....  (Almloef) done
Projecting the Hessian                  .... done
Forming the augmented Hessian           .... done
Diagonalizing the augmented Hessian     .... done
Last element of RFO vector              ....  0.994206725
Lowest eigenvalues of augmented Hessian:
 -0.003833880  0.013695755  0.021368689  0.021368934  0.021771473
Length of the computed step             ....  0.108111147
The final length of the internal step   ....  0.108111147
Converting the step to Cartesian space:
 Initial RMS(Int)=    0.0123204086
Transforming coordinates:
 Iter   0:  RMS(Cart)=    0.0261533881 RMS(Int)=    2.6766173984
done
Storing new coordinates                 .... done

                                .--------------------.
          ----------------------|Geometry convergence|-------------------------
          Item                value                   Tolerance       Converged
          ---------------------------------------------------------------------
          RMS gradient        0.0047132873            0.0001000000      NO
          MAX gradient        0.0211437465            0.0003000000      NO
          RMS step            0.0123204086            0.0020000000      NO
          MAX step            0.0404257736            0.0040000000      NO
          ........................................................
          Max(Bonds)      0.0214      Max(Angles)    1.54
          Max(Dihed)        1.42      Max(Improp)    0.00
          ---------------------------------------------------------------------

The optimization has not yet converged - more geometry cycles are needed


    ---------------------------------------------------------------------------
                         Redundant Internal Coordinates
                            (Angstroem and degrees)

        Definition                    Value    dE/dq     Step     New-Value
    ----------------------------------------------------------------------------
     1. B(C   2,N   0)                1.4104  0.021144 -0.0214    1.3890   
     2. B(C   3,C   1)                1.3949 -0.006936  0.0059    1.4007   
     3. B(C   4,C   1)                1.3948 -0.006992  0.0059    1.4007   
     4. B(C   5,C   2)                1.3948 -0.009364  0.0081    1.4029   
     5. B(C   5,C   3)                1.3949 -0.002945  0.0025    1.3974   
     6. B(C   6,C   4)                1.3949 -0.002916  0.0025    1.3974   
     7. B(C   6,C   2)                1.3949 -0.009381  0.0081    1.4030   
     8. B(C   7,C   1)                1.4913 -0.015985  0.0195    1.5108   
     9. B(H   8,C   3)                1.0868 -0.004340  0.0062    1.0930   
    10. B(H   9,C   4)                1.0868 -0.004317  0.0062    1.0930   
    11. B(H  10,C   5)                1.0870 -0.004504  0.0065    1.0935   
    12. B(H  11,C   6)                1.0871 -0.004409  0.0063    1.0935   
    13. B(H  12,C   7)                1.0953 -0.003994  0.0059    1.1013   
    14. B(H  13,C   7)                1.0953 -0.004013  0.0059    1.1012   
    15. B(H  14,C   7)                1.0944 -0.006646  0.0098    1.1042   
    16. B(H  15,N   0)                1.0112  0.003317 -0.0040    1.0072   
    17. B(H  16,N   0)                1.0114  0.003423 -0.0042    1.0072   
    18. A(C   2,N   0,H  15)          120.04 -0.001217    0.22    120.26   
    19. A(C   2,N   0,H  16)          120.03 -0.001243    0.22    120.25   
    20. A(H  15,N   0,H  16)          119.93  0.002461   -0.44    119.49   
    21. A(C   3,C   1,C   7)          120.01 -0.005592    0.77    120.78   
    22. A(C   4,C   1,C   7)          120.00 -0.005591    0.77    120.77   
    23. A(C   3,C   1,C   4)          120.00  0.011183   -1.54    118.45   
    24. A(N   0,C   2,C   6)          119.98 -0.003869    0.51    120.49   
    25. A(N   0,C   2,C   5)          120.02 -0.003693    0.49    120.51   
    26. A(C   5,C   2,C   6)          120.00  0.007561   -1.00    119.00   
    27. A(C   1,C   3,C   5)          120.00 -0.007288    0.99    120.99   
    28. A(C   5,C   3,H   8)          119.31  0.002225   -0.27    119.05   
    29. A(C   1,C   3,H   8)          120.69  0.005063   -0.72    119.97   
    30. A(C   1,C   4,C   6)          120.00 -0.007288    0.99    120.99   
    31. A(C   6,C   4,H   9)          119.31  0.002225   -0.27    119.05   
    32. A(C   1,C   4,H   9)          120.69  0.005063   -0.72    119.97   
    33. A(C   2,C   5,H  10)          120.69  0.003255   -0.50    120.20   
    34. A(C   2,C   5,C   3)          120.00 -0.002086    0.28    120.28   
    35. A(C   3,C   5,H  10)          119.31 -0.001169    0.21    119.52   
    36. A(C   4,C   6,H  11)          119.30 -0.001183    0.22    119.52   
    37. A(C   2,C   6,H  11)          120.70  0.003265   -0.50    120.20   
    38. A(C   2,C   6,C   4)          120.00 -0.002082    0.28    120.29   
    39. A(H  13,C   7,H  14)          108.69  0.003651   -0.78    107.91   
    40. A(H  12,C   7,H  14)          108.70  0.003842   -0.82    107.88   
    41. A(C   1,C   7,H  14)          110.07 -0.004959    0.79    110.86   
    42. A(H  12,C   7,H  13)          106.98  0.000045    0.22    107.20   
    43. A(C   1,C   7,H  13)          111.16 -0.001116    0.27    111.42   
    44. A(C   1,C   7,H  12)          111.14 -0.001079    0.26    111.40   
    45. D(C   6,C   2,N   0,H  15)      0.05 -0.000045    0.08      0.13   
    46. D(C   5,C   2,N   0,H  15)   -179.95  0.000062   -0.12   -180.07   
    47. D(C   5,C   2,N   0,H  16)     -0.05  0.000045   -0.08     -0.13   
    48. D(C   6,C   2,N   0,H  16)    179.95 -0.000062    0.12    180.07   
    49. D(C   5,C   3,C   1,C   7)    179.99 -0.000681    1.39    181.38   
    50. D(H   8,C   3,C   1,C   4)    179.89 -0.000129    0.19    180.08   
    51. D(H   8,C   3,C   1,C   7)     -0.12 -0.000693    1.42      1.30   
    52. D(C   5,C   3,C   1,C   4)      0.00 -0.000117    0.16      0.16   
    53. D(H   9,C   4,C   1,C   7)      0.12  0.000693   -1.42     -1.30   
    54. D(H   9,C   4,C   1,C   3)   -179.89  0.000129   -0.19   -180.08   
    55. D(C   6,C   4,C   1,C   7)   -179.99  0.000681   -1.39   -181.38   
    56. D(C   6,C   4,C   1,C   3)     -0.00  0.000117   -0.16     -0.16   
    57. D(H  10,C   5,C   2,N   0)      0.02  0.000008   -0.00      0.02   
    58. D(C   3,C   5,C   2,C   6)     -0.01 -0.000024    0.05      0.04   
    59. D(H  10,C   5,C   3,H   8)      0.08 -0.000057    0.12      0.20   
    60. D(H  10,C   5,C   3,C   1)    179.97 -0.000065    0.15    180.12   
    61. D(C   2,C   5,C   3,H   8)   -179.89  0.000079   -0.13   -180.02   
    62. D(C   2,C   5,C   3,C   1)      0.00  0.000070   -0.11     -0.10   
    63. D(H  10,C   5,C   2,C   6)   -179.98  0.000115   -0.20   -180.18   
    64. D(C   3,C   5,C   2,N   0)    179.99 -0.000131    0.25    180.24   
    65. D(H  11,C   6,C   4,H   9)     -0.08  0.000057   -0.12     -0.20   
    66. D(C   2,C   6,C   4,H   9)    179.89 -0.000079    0.13    180.02   
    67. D(C   2,C   6,C   4,C   1)     -0.00 -0.000070    0.11      0.10   
    68. D(H  11,C   6,C   2,C   5)    179.98 -0.000115    0.20    180.18   
    69. D(H  11,C   6,C   2,N   0)     -0.02 -0.000008    0.00     -0.02   
    70. D(H  11,C   6,C   4,C   1)   -179.97  0.000065   -0.15   -180.12   
    71. D(C   4,C   6,C   2,C   5)      0.01  0.000024   -0.05     -0.04   
    72. D(C   4,C   6,C   2,N   0)   -179.99  0.000131   -0.25   -180.24   
    73. D(H  13,C   7,C   1,C   3)    -30.30 -0.000443   -0.19    -30.49   
    74. D(H  12,C   7,C   1,C   4)     30.65  0.000382    0.42     31.07   
    75. D(H  12,C   7,C   1,C   3)   -149.34  0.000943   -0.80   -150.14   
    76. D(H  14,C   7,C   1,C   3)     90.18  0.000118   -0.46     89.71   
    77. D(H  13,C   7,C   1,C   4)    149.69 -0.001004    1.04    150.73   
    ----------------------------------------------------------------------------

Geometry step timings:
Preparation and reading OPT file:      0.001 s (14.213 %)
Internal coordinates            :      0.000 s ( 1.509 %)
B/P matrices and projection     :      0.002 s (25.587 %)
Hessian update/contruction      :      0.001 s ( 7.772 %)
Making the step                 :      0.001 s (20.132 %)
Converting the step to Cartesian:      0.000 s ( 2.989 %)
Storing new data                :      0.000 s ( 1.420 %)
Checking convergence            :      0.000 s ( 0.179 %)
Final printing                  :      0.002 s (25.945 %)
Total time                      :      0.007 s

Time for energy+gradient        :     18.286 s
Time for complete geometry iter :     18.596 s

         *************************************************************
         *                GEOMETRY OPTIMIZATION CYCLE   2            *
         *************************************************************
---------------------------------
CARTESIAN COORDINATES (ANGSTROEM)
---------------------------------
  N     -2.822028    0.000180   -0.008122
  C      1.393069   -0.000049    0.014856
  C     -1.433029   -0.000091   -0.003248
  C      0.676399   -1.203557    0.011798
  C      0.676406    1.203473    0.011200
  C     -0.720978   -1.208860    0.001769
  C     -0.720947    1.208723    0.001167
  C      2.903702    0.000068   -0.005388
  H      1.210661   -2.157089    0.015920
  H      1.210653    2.157021    0.014849
  H     -1.256154   -2.162406    0.001515
  H     -1.256090    2.162290    0.000440
  H      3.312304    0.884029    0.508823
  H      3.312806   -0.888672    0.500074
  H      3.283029    0.005691   -1.042406
  H     -3.329341    0.870287   -0.010591
  H     -3.329661   -0.869737   -0.010154

----------------------------
CARTESIAN COORDINATES (A.U.)
----------------------------
  NO LB      ZA    FRAG     MASS         X           Y           Z
   0 N     7.0000    0    14.007   -5.332860    0.000340   -0.015348
   1 C     6.0000    0    12.011    2.632519   -0.000093    0.028073
   2 C     6.0000    0    12.011   -2.708032   -0.000173   -0.006138
   3 C     6.0000    0    12.011    1.278210   -2.274393    0.022294
   4 C     6.0000    0    12.011    1.278221    2.274234    0.021165
   5 C     6.0000    0    12.011   -1.362452   -2.284414    0.003342
   6 C     6.0000    0    12.011   -1.362393    2.284155    0.002206
   7 C     6.0000    0    12.011    5.487202    0.000129   -0.010181
   8 H     1.0000    0     1.008    2.287817   -4.076308    0.030085
   9 H     1.0000    0     1.008    2.287802    4.076179    0.028060
  10 H     1.0000    0     1.008   -2.373788   -4.086356    0.002863
  11 H     1.0000    0     1.008   -2.373667    4.086137    0.000831
  12 H     1.0000    0     1.008    6.259348    1.670574    0.961536
  13 H     1.0000    0     1.008    6.260297   -1.679347    0.945002
  14 H     1.0000    0     1.008    6.204026    0.010755   -1.969863
  15 H     1.0000    0     1.008   -6.291544    1.644604   -0.020013
  16 H     1.0000    0     1.008   -6.292147   -1.643564   -0.019189

--------------------------------
INTERNAL COORDINATES (ANGSTROEM)
--------------------------------
[...]
      dx2y2   :     0.006927
      dxy     :     0.005313

  8 H s       :     1.018145  s :     1.018145
      pz      :     0.004777  p :     0.022727
      px      :     0.006107
      py      :     0.011843

  9 H s       :     1.018154  s :     1.018154
      pz      :     0.004777  p :     0.022727
      px      :     0.006106
      py      :     0.011844

 10 H s       :     1.031485  s :     1.031485
      pz      :     0.005414  p :     0.022960
      px      :     0.005768
      py      :     0.011778

 11 H s       :     1.031461  s :     1.031461
      pz      :     0.005413  p :     0.022959
      px      :     0.005768
      py      :     0.011778

 12 H s       :     0.971221  s :     0.971221
      pz      :     0.007123  p :     0.023119
      px      :     0.005308
      py      :     0.010688

 13 H s       :     0.971465  s :     0.971465
      pz      :     0.007051  p :     0.023115
      px      :     0.005305
      py      :     0.010758

 14 H s       :     0.955429  s :     0.955429
      pz      :     0.012778  p :     0.023379
      px      :     0.005277
      py      :     0.005324

 15 H s       :     0.850427  s :     0.850427
      pz      :     0.013813  p :     0.045281
      px      :     0.011635
      py      :     0.019834

 16 H s       :     0.850425  s :     0.850425
      pz      :     0.013812  p :     0.045281
      px      :     0.011636
      py      :     0.019833



                     *******************************
                     * LOEWDIN POPULATION ANALYSIS *
                     *******************************

----------------------
LOEWDIN ATOMIC CHARGES
----------------------
   0 N :   -0.026546
   1 C :   -0.063532
   2 C :    0.025391
   3 C :   -0.020750
   4 C :   -0.020700
   5 C :   -0.072891
   6 C :   -0.072831
   7 C :   -0.046642
   8 H :    0.021322
   9 H :    0.021328
  10 H :    0.017293
  11 H :    0.017296
  12 H :    0.025789
  13 H :    0.025735
  14 H :    0.029782
  15 H :    0.069977
  16 H :    0.069979

-------------------------------
LOEWDIN REDUCED ORBITAL CHARGES
-------------------------------
  0 N s       :     3.015599  s :     3.015599
      pz      :     1.696366  p :     3.969785
      px      :     1.135558
      py      :     1.137861
      dz2     :     0.002839  d :     0.041162
      dxz     :     0.004940
      dyz     :     0.000035
      dx2y2   :     0.013507
      dxy     :     0.019841

  1 C s       :     2.851687  s :     2.851687
      pz      :     1.005554  p :     3.106422
      px      :     1.026939
      py      :     1.073929
      dz2     :     0.007190  d :     0.105422
      dxz     :     0.010805
      dyz     :     0.012580
      dx2y2   :     0.036686
      dxy     :     0.038161

  2 C s       :     2.833389  s :     2.833389
      pz      :     0.941901  p :     2.993140
      px      :     0.954568
      py      :     1.096671
      dz2     :     0.009512  d :     0.148081
      dxz     :     0.035280
      dyz     :     0.013476
      dx2y2   :     0.050223
      dxy     :     0.039590

  3 C s       :     2.860772  s :     2.860772
      pz      :     0.974892  p :     3.067572
      px      :     1.054226
      py      :     1.038453
      dz2     :     0.006120  d :     0.092406
      dxz     :     0.014277
      dyz     :     0.006654
      dx2y2   :     0.031426
      dxy     :     0.033928

  4 C s       :     2.860768  s :     2.860768
      pz      :     0.974849  p :     3.067533
      px      :     1.054221
      py      :     1.038463
      dz2     :     0.006120  d :     0.092399
      dxz     :     0.014273
      dyz     :     0.006652
      dx2y2   :     0.031425
      dxy     :     0.033929

  5 C s       :     2.858537  s :     2.858537
      pz      :     1.055154  p :     3.127626
      px      :     1.053325
      py      :     1.019146
      dz2     :     0.006295  d :     0.086728
      dxz     :     0.011123
      dyz     :     0.005418
      dx2y2   :     0.028405
      dxy     :     0.035488

  6 C s       :     2.858541  s :     2.858541
      pz      :     1.055074  p :     3.127558
      px      :     1.053343
      py      :     1.019141
      dz2     :     0.006295  d :     0.086733
      dxz     :     0.011125
      dyz     :     0.005417
      dx2y2   :     0.028404
      dxy     :     0.035492

  7 C s       :     2.835207  s :     2.835207
      pz      :     1.063422  p :     3.137924
      px      :     1.017281
      py      :     1.057221
      dz2     :     0.014628  d :     0.073510
      dxz     :     0.015365
      dyz     :     0.011467
      dx2y2   :     0.018823
      dxy     :     0.013228

  8 H s       :     0.912763  s :     0.912763
      pz      :     0.014239  p :     0.065914
      px      :     0.017660
      py      :     0.034015

  9 H s       :     0.912760  s :     0.912760
      pz      :     0.014237  p :     0.065912
      px      :     0.017660
      py      :     0.034016

 10 H s       :     0.915024  s :     0.915024
      pz      :     0.016583  p :     0.067683
      px      :     0.017221
      py      :     0.033879

 11 H s       :     0.915023  s :     0.915023
      pz      :     0.016581  p :     0.067682
      px      :     0.017221
      py      :     0.033880

 12 H s       :     0.910592  s :     0.910592
      pz      :     0.018110  p :     0.063619
      px      :     0.015820
      py      :     0.029688

 13 H s       :     0.910651  s :     0.910651
      pz      :     0.017897  p :     0.063614
      px      :     0.015814
      py      :     0.029902

 14 H s       :     0.906519  s :     0.906519
      pz      :     0.036006  p :     0.063700
      px      :     0.015629
      py      :     0.012064

 15 H s       :     0.805773  s :     0.805773
      pz      :     0.043997  p :     0.124251
      px      :     0.028295
      py      :     0.051958

 16 H s       :     0.805771  s :     0.805771
      pz      :     0.043996  p :     0.124250
      px      :     0.028298
      py      :     0.051955



                      *****************************
                      * MAYER POPULATION ANALYSIS *
                      *****************************

  NA   - Mulliken gross atomic population
  ZA   - Total nuclear charge
  QA   - Mulliken gross atomic charge
  VA   - Mayer's total valence
  BVA  - Mayer's bonded valence
  FA   - Mayer's free valence

  ATOM       NA         ZA         QA         VA         BVA        FA
  0 N      7.0826     7.0000    -0.0826     3.1895     3.1895     0.0000
  1 C      6.0396     6.0000    -0.0396     3.9477     3.9477    -0.0000
  2 C      5.9076     6.0000     0.0924     4.0395     4.0395     0.0000
  3 C      6.0179     6.0000    -0.0179     3.8825     3.8825    -0.0000
  4 C      6.0179     6.0000    -0.0179     3.8825     3.8825     0.0000
  5 C      6.0334     6.0000    -0.0334     3.7782     3.7782     0.0000
  6 C      6.0334     6.0000    -0.0334     3.7783     3.7783     0.0000
  7 C      5.9179     6.0000     0.0821     3.9060     3.9060    -0.0000
  8 H      1.0409     1.0000    -0.0409     0.9831     0.9831    -0.0000
  9 H      1.0409     1.0000    -0.0409     0.9831     0.9831     0.0000
 10 H      1.0544     1.0000    -0.0544     0.9830     0.9830     0.0000
 11 H      1.0544     1.0000    -0.0544     0.9830     0.9830    -0.0000
 12 H      0.9943     1.0000     0.0057     0.9918     0.9918     0.0000
 13 H      0.9946     1.0000     0.0054     0.9919     0.9919    -0.0000
 14 H      0.9788     1.0000     0.0212     0.9837     0.9837     0.0000
 15 H      0.8957     1.0000     0.1043     1.0034     1.0034     0.0000
 16 H      0.8957     1.0000     0.1043     1.0034     1.0034     0.0000

  Mayer bond orders larger than 0.100000
B(  0-N ,  2-C ) :   1.2347 B(  0-N , 15-H ) :   0.9509 B(  0-N , 16-H ) :   0.9509 
B(  1-C ,  3-C ) :   1.3784 B(  1-C ,  4-C ) :   1.3780 B(  1-C ,  7-C ) :   1.0652 
B(  2-C ,  5-C ) :   1.3159 B(  2-C ,  6-C ) :   1.3157 B(  3-C ,  5-C ) :   1.3930 
B(  3-C ,  8-H ) :   0.9798 B(  4-C ,  6-C ) :   1.3934 B(  4-C ,  9-H ) :   0.9799 
B(  5-C , 10-H ) :   0.9835 B(  6-C , 11-H ) :   0.9835 B(  7-C , 12-H ) :   0.9582 
B(  7-C , 13-H ) :   0.9582 B(  7-C , 14-H ) :   0.9532 

Environment variable NBOEXE for nbo6.exe or nbo5.exe not set! Skipping NBO-Analysis

-------
TIMINGS
-------

Total SCF time: 0 days 0 hours 0 min 4 sec 

Total time                  ....       4.018 sec
Sum of individual times     ....       3.987 sec  ( 99.2%)

SCF preparation             ....       0.263 sec  (  6.5%)
Fock matrix formation       ....       3.651 sec  ( 90.9%)
  Startup                   ....       0.003 sec  (  0.1% of F)
  Split-RI-J                ....       0.202 sec  (  5.5% of F)
  Chain of spheres X        ....       2.975 sec  ( 81.5% of F)
  XC integration            ....       0.462 sec  ( 12.7% of F)
    Basis function eval.    ....       0.179 sec  ( 38.6% of XC)
    Density eval.           ....       0.080 sec  ( 17.2% of XC)
    XC-Functional eval.     ....       0.047 sec  ( 10.1% of XC)
    XC-Potential eval.      ....       0.134 sec  ( 28.9% of XC)
Diagonalization             ....       0.000 sec  (  0.0%)
Density matrix formation    ....       0.004 sec  (  0.1%)
Total Energy calculation    ....       0.004 sec  (  0.1%)
Population analysis         ....       0.029 sec  (  0.7%)
Orbital Transformation      ....       0.006 sec  (  0.2%)
Orbital Orthonormalization  ....       0.000 sec  (  0.0%)
DIIS solution               ....       0.011 sec  (  0.3%)
SOSCF solution              ....       0.018 sec  (  0.5%)
Finished LeanSCF after   4.1 sec

Maximum memory used throughout the entire LEANSCF-calculation: 17.4 MB


-------------------------------------------------------------------------------
                          DFT DISPERSION CORRECTION                            
                                                                               
                              DFTD3 V3.1  Rev 1                                
                          USING Becke-Johnson damping                          
-------------------------------------------------------------------------------
The B3LYP functional is recognized
Active option DFTDOPT                   ...         4   

molecular C6(AA) [au] = 2931.002243 


            DFT-D V3
 parameters
 s6 scaling factor         :     1.0000 
 a1 scaling factor         :     0.3981 
 s8 scaling factor         :     1.9889 
 a2 scaling factor         :     4.4211 
 ad hoc parameters k1-k3   :    16.0000     1.3333    -4.0000 

 Edisp/kcal,au: -17.564163772044  -0.027990273652 
 E6   /kcal   :  -8.244709420 
 E8   /kcal   :  -9.319454352 
 % E8         :  53.059482210 

-------------------------   ----------------
Dispersion correction           -0.027990274
-------------------------   ----------------


-------------------------   --------------------
FINAL SINGLE POINT ENERGY      -326.503807576374
-------------------------   --------------------

                                *** OPTIMIZATION RUN DONE ***



           ************************************************************
           *        Program running with 4 parallel MPI-processes     *
           *              working on a common directory               *
           ************************************************************

------------------------------------------------------------------------------
                              ORCA PROPERTY CALCULATIONS
------------------------------------------------------------------------------

GBWName                                 ... p_toluidine_2.gbw
Number of atoms                         ...     17
Number of basis functions               ...    157
Max core memory                         ...   1024 MB

Electric properties:
Dipole moment                           ... YES
Quadrupole moment                       ...  NO
Static polarizability (Dipole/Dipole)   ...  NO
Static polarizability (Dipole/Quad.)    ...  NO
Static polarizability (Quad./Quad.)     ...  NO
Static polarizability (Velocity)        ...  NO

Atomic electric properties:
Dipole moment                           ...  NO
Quadrupole moment                       ...  NO
Static polarizability                   ...  NO

Choice of electric origin               ... Center of mass
Position of electric origin             ...    -0.054813     0.000092     0.005876

General magnetic properties:
Magnetizability                         ...  NO

EPR properties:
g-Tensor (aka g-matrix)                 ...  NO
Zero-Field splitting spin-orbit         ...  NO
Zero-field splitting spin-spin          ...  NO
Hyperfine couplings                     ...  NO (   0 nuclei)
Quadrupole couplings                    ...  NO (   0 nuclei)
Contact density                         ...  NO (   0 nuclei)

NMR properties:
Chemical shifts                         ...  NO (   0 nuclei)
Spin-rotation constants                 ...  NO (   0 nuclei)
Spin-spin couplings                     ...  NO (   0 nuclei,    0 pairs)

Choice of magnetic origin               ... GIAO
Position of magnetic origin             ...     0.000000     0.000000     0.000000

Properties with geometric perturbations:
SCF Hessian                             ...  NO
IR spectrum                             ...  NO
VCD spectrum                            ...  NO
X-ray spectroscopy properties:
SCF XES/XAS/RIXS spectra                ...  NO


-------------
DIPOLE MOMENT
-------------

Method             : SCF
Type of density    : Electron Density
Multiplicity       :   1
Irrep              :   0
Energy             :  -326.4758173027212820 Eh
Relativity type    : 
Basis              : AO
                                X                 Y                 Z
Electronic contribution:     -3.934970818      -0.000077418       0.030439693
Nuclear contribution   :      3.199282414       0.000489321      -0.054248280
                        -----------------------------------------
Total Dipole Moment    :     -0.735688403       0.000411903      -0.023808586
                        -----------------------------------------
Magnitude (a.u.)       :      0.736073668
Magnitude (Debye)      :      1.870950578



--------------------
Rotational spectrum 
--------------------
 
Rotational constants in cm-1:             0.181862             0.048197             0.038376 
Rotational constants in MHz :          5452.074712          1444.895170          1150.492300 

Dipole components along the rotational axes: 
x,y,z [a.u.] :     0.735738     0.000431    -0.022216 
x,y,z [Debye]:     1.870098     0.001097    -0.056468 

 

Dipole moment calculation done in   0.0 sec 

Maximum memory used throughout the entire PROP-calculation: 8.4 MB

--------------------------------
SUGGESTED CITATIONS FOR THIS RUN
--------------------------------

Below you find a list of papers that are relevant to this ORCA run
We neither can nor want to force you to cite these papers, but we appreciate if you do
You receive ORCA, which is the product of decades of hard work by many enthusiastic individuals, for free
The only thing we kindly ask in return is that you cite our papers,
We deeply appreciate it, if you show your appreciation for ORCA by not just citing the generic ORCA reference.

Please note that relegating all ORCA citations to the supporting information does *not* help us.
SI sections are not indexed - citations you put there will not count into any citation statistics
But we need these citations in order to attract the funding resources that allow us to do what we are doing

Therefore, if you are a happy ORCA user, please consider citing a few of the papers listed below in the main body of your paper

In addition to the list printed below, the program has created the file p_toluidine_2.bibtex that contains the list in bibtex format
You can import this file easily into all common literature databanks and citation aid programs


List of essential papers. We consider these as the minimum necessary citations

  1. Neese,F.
     Software update: the ORCA program system, version 5.0
     WIRES Comput. Molec. Sci., 2022 12(1)e1606
     doi.org/10.1002/wcms.1606

List of papers to cite with high priority. The work reported in these papers was absolutely
necessary for this run to complete.
Our perspective: the developers of density functionals and basis sets usually get cited in chemistry papers
Good! But without the algorithms to do something with them, the functionals or basis sets would not do anything.
Hence, in our opinion, the algorithm design and method developments papers are equally worthy of getting cited

  1. Neese,F.
     An improvement of the resolution of the identity approximation for the formation of the Coulomb matrix
     J. Comp. Chem., 2003 24(14)1740-1747
     doi.org/10.1002/jcc.10318
  2. Neese,F.; Wennmohs,F.; Hansen,A.; Becker,U.
     Efficient, approximate and parallel Hartree-Fock and hybrid DFT calculations. A 'chain-of-spheres' algorithm for the Hartree-Fock exchange
     Chem. Phys., 2009 356(1-3)98-109
     doi.org/10.1016/j.chemphys.2008.10.036
  3. Helmich-Paris,B.; de Souza,B.; Neese,F.; Izsák,R.
     An improved chain of spheres for exchange algorithm
     J. Chem. Phys., 2021 155 104109
     doi.org/doi: 10.1063/5.0058766.
  4. Neese,F.
     The SHARK Integral Generation and Digestion System
     J. Comp. Chem., 2022  1-16
     doi.org/10.1002/jcc.26942
  5. Grimme,S.; Antony,J.; Ehrlich,S.; Krieg,H.
     A consistent and accurate ab initio parametrization of density functional dispersion correction (DFT-D) for the 94 elements H-Pu
     J. Chem. Phys., 2010 132 154104
     doi.org/10.1063/1.3382344
  6. Grimme,S.; Ehrlich,S.; Goerigk,L.
     Effect of the damping function in dispersion corrected density functional theory
     J. Comput. Chem., 2011 32(7)1456-1465
     doi.org/10.1002/jcc.21759

List of suggested additional citations. These are papers that are important in the 'surrounding' of 
of this run, or papers that preceded the highly important papers. If you like your results we are grateful for a citation.

  1. Izsak,R.; Neese,F.
     An overlap fitted chain of spheres exchange method
     J. Chem. Phys., 2011 135 144105
     doi.org/10.1063/1.3646921
  2. Izsak,R.; Hansen,A.; Neese,F.
     The resolution of identity and chain of spheres approximations for the LPNO-CCSD singles Fock term
     Molec. Phys., 2012 110 2413-2417
     doi.org/10.1080/00268976.2012.687466
  3. Neese,F.
     The ORCA program system
     WIRES Comput. Molec. Sci., 2012 2(1)73-78
     doi.org/10.1002/wcms.81
  4. Izsak,R.; Neese,F.; Klopper,W.
     Robust fitting techniques in the chain of spheres approximation to the Fock exchange: The role of the complementary space
     J. Chem. Phys., 2013 139 
     doi.org/10.1063/1.4819264
  5. Neese,F.
     Software update: the ORCA program system, version 4.0
     WIRES Comput. Molec. Sci., 2018 8(1)1-6
     doi.org/10.1002/wcms.1327
  6. Neese,F.; Wennmohs,F.; Becker,U.; Riplinger,C.
     The ORCA quantum chemistry program package
     J. Chem. Phys., 2020 152 Art. No. L224108
     doi.org/10.1063/5.0004608

List of optional additional citations

  1. Neese,F.
     Approximate second-order SCF convergence for spin unrestricted wavefunctions
     Chem. Phys. Lett., 2000 325(1-3)93-98
     doi.org/10.1016/s0009-2614(00)00662-x

Timings for individual modules:

Sum of individual times          ...       81.452 sec (=   1.358 min)
Startup calculation              ...        7.396 sec (=   0.123 min)   9.1 %
SCF iterations                   ...       41.342 sec (=   0.689 min)  50.8 %
Property calculations            ...        0.370 sec (=   0.006 min)   0.5 %
SCF Gradient evaluation          ...       32.289 sec (=   0.538 min)  39.6 %
Geometry relaxation              ...        0.055 sec (=   0.001 min)   0.1 %
                             ****ORCA TERMINATED NORMALLY****
TOTAL RUN TIME: 0 days 0 hours 1 minutes 23 seconds 720 msec
