
                                 *****************
                                 * O   R   C   A *
                                 *****************

                                            #,                                       
                                            ###                                      
                                            ####                                     
                                            #####                                    
                                            ######                                   
                                           ########,                                 
                                     ,,################,,,,,                         
                               ,,#################################,,                 
                          ,,##########################################,,             
                       ,#########################################, ''#####,          
                    ,#############################################,,   '####,        
                  ,##################################################,,,,####,       
                ,###########''''           ''''###############################       
              ,#####''   ,,,,##########,,,,          '''####'''          '####       
            ,##' ,,,,###########################,,,                        '##       
           ' ,,###''''                  '''############,,,                           
         ,,##''                                '''############,,,,        ,,,,,,###''
      ,#''                                            '''#######################'''  
     '                                                          ''''####''''         
             ,#######,   #######,   ,#######,      ##                                
            ,#'     '#,  ##    ##  ,#'     '#,    #''#        ,####,   ,####,        
            ##       ##  ##   ,#'  ##            #'  '#       #'       #'  '#        
            ##       ##  #######   ##           ,######,      #####,   #    #        
            '#,     ,#'  ##    ##  '#,     ,#' ,#      #,     #,   #   #,  ,#        
             '#######'   ##     ##  '#######'  #'      '#     '####' # '####'        



                #########################################################
                #                        -***-                          #
                #          Department of theory and spectroscopy        #
                #                                                       #
                #                      Frank Neese                      #
                #                                                       #
                #     Directorship, Architecture, Infrastructure        #
                #                    SHARK, DRIVERS                     #
                #        Core code/Algorithms in most modules           #
                #                                                       #
                #        Max Planck Institute fuer Kohlenforschung      #
                #                Kaiser Wilhelm Platz 1                 #
                #                 D-45470 Muelheim/Ruhr                 #
                #                      Germany                          #
                #                                                       #
                #                  All rights reserved                  #
                #                        -***-                          #
                #########################################################


                         Program Version 6.0.1  -  RELEASE   -


 With contributions from (in alphabetic order):
[Max-Planck-Institut fuer Kohlenforschung]                               
  Daniel Aravena         : Magnetic Suceptibility                        
  Michael Atanasov       : Ab Initio Ligand Field Theory (pilot matlab implementation)
  Alexander A. Auer      : GIAO ZORA, VPT2 properties, NMR spectrum      
  Ute Becker             : All parallelization in ORCA, NUMFREQ, NUMCALC 
  Giovanni Bistoni       : ED, misc. LED, open-shell LED, HFLD           
  Martin Brehm           : Molecular dynamics                            
  Dmytro Bykov           : pre 5.0 version of the SCF Hessian            
  Marcos Casanova-Páez   : Triplet and SCS-CIS(D). UHF-(DLPNO)-IP/EA/STEOM-CCSD. UHF-CVS-IP/STEOM-CCSD   
  Vijay G. Chilkuri      : MRCI spin determinant printing, contributions to CSF-ICE 
  Pauline Colinet        : FMM embedding                                 
  Dipayan Datta          : RHF DLPNO-CCSD density                        
  Achintya Kumar Dutta   : EOM-CC, STEOM-CC                              
  Nicolas Foglia         : Exact transition moments, OPA infrastructure, MCD improvements    
  Dmitry Ganyushin       : Spin-Orbit,Spin-Spin,Magnetic field MRCI      
  Miquel Garcia-Rates    : C-PCM and meta-GGA Hessian, CCSD/C-PCM, Gaussian charge scheme 
  Tiago L. C. Gouveia    : GS-ROHF, GS-ROCIS                             
  Yang Guo               : DLPNO-NEVPT2, F12-NEVPT2, CIM, IAO-localization        
  Andreas Hansen         : Spin unrestricted coupled pair/coupled cluster methods 
  Ingolf Harden          : AUTO-CI MPn and infrastructure                
  Benjamin Helmich-Paris : MC-RPA, TRAH-(SCF,CASSCF), AVAS, COSX integrals, SCF dyn. polar. 
  Lee Huntington         : MR-EOM, pCC                                   
  Robert Izsak           : Overlap fitted RIJCOSX, COSX-SCS-MP3, EOM     
  Riya Kayal             : Wick's Theorem for AUTO-CI, AUTO-CI UHF-CCSDT 
  Emily Kempfer          : AUTO-CI, RHF CISDT and CCSDT                  
  Christian Kollmar      : KDIIS, OOCD, Brueckner-CCSD(T), CCSD density, CASPT2, CASPT2-K, improved NEVPT2 
  Axel Koslowski         : Symmetry handling                             
  Simone Kossmann        : meta-GGA functionals, TD-DFT gradient, OOMP2, (MP2 Hessian; deprecated post 5.0) 
  Lucas Lang             : DCDCAS                                        
  Marvin Lechner         : AUTO-CI (C++ implementation), FIC-MRCC        
  Spencer Leger          : CASSCF response                               
  Dagmar Lenk            : GEPOL surface, SMD, ORCA-2-JSON               
  Dimitrios Liakos       : Extrapolation schemes; Compound Job, initial MDCI parallelization 
  Dimitrios Manganas     : Further ROCIS development; embedding schemes. LFT, Crystal Embedding 
  Dimitrios Pantazis     : SARC Basis sets                               
  Anastasios Papadopoulos: AUTO-CI, single reference methods and gradients 
  Taras Petrenko         : pre 6.0 DFT Hessian and TD-DFT gradient, (ASA, deprecated), ECA, 1-Electron XAS/XES, NRVS 
  Peter Pinski           : DLPNO-MP2, DLPNO-MP2 Gradient                 
  Christoph Reimann      : Effective Core Potentials                     
  Marius Retegan         : Local ZFS, SOC                                
  Christoph Riplinger    : Optimizer, TS searches, QM/MM, DLPNO-CCSD(T), (RO)-DLPNO pert. Triples 
  Michael Roemelt        : Original ROCIS implementation                 
  Masaaki Saitow         : Open-shell DLPNO-CCSD energy and density      
  Barbara Sandhoefer     : DKH picture change effects                    
  Kantharuban Sivalingam : CASSCF convergence/infrastructure, NEVPT2 and variants, FIC-MRCI 
  Bernardo de Souza      : ESD, SOC TD-DFT                               
  Georgi L. Stoychev     : AutoAux, RI-MP2 NMR, DLPNO-MP2 response, X2C  
  Van Anh Tran           : RI-MP2 g-tensors                              
  Willem Van den Heuvel  : Paramagnetic NMR                              
  Zikuan Wang            : NOTCH, Electric field optimization            
  Frank Wennmohs         : Technical directorship and infrastructure     
  Hang Xu                : AUTO-CI-Response properties                   
                                                                         
[FACCTs GmbH]                                                            
  Markus Bursch, Miquel Garcia-Rates, Christoph Riplinger, Bernardo de Souza, Georgi L. Stoychev 
                                                                 
  APM, Basis sets (HGBS, AHGBS, def-TZVP (Ac-Lr), def2-XVPD (La-Lu)), CI-OPT, improved COSX, DLPNO-Multilevel,           
  DOCKER, DRACO, updates on ESD, GOAT, IRC, LR-CPCM, MBIS, meta-GGA TD-DFT gradient, ML-optimized integration grids, 
  MM, NACMEs, nearIR, NEB, NEB-TS, NL-DFT gradient (VV10), 2- and 3-layer-ONIOM, interface openCOSMO-RS, QMMM,   
  Crystal-QMMM, SF, symmetry and pop. for TD-DFT, r2SCAN hybrids, SOLVATOR                                   
                                                                         
[Other institutions]                                                     
  V. Asgeirsson          : NEB                                           
  Christoph Bannwarth    : sTDA-DFT, sTD-DFT, PBEh-3c, B97-3c, D3        
  Sebastian Ehlert       : rSCAN, r2SCAN, r2SCAN-3c, D4, dhf basis sets  
  Marvin Friede          : D4 for Fr, Ra, Ac-Lr                          
  Lars Goerigk           : TD-DFT with DH, B97 family of functionals     
  Stefan Grimme          : VdW corrections, initial TS optimization, DFT functionals, gCP, sTDA/sTD-DF 
  Waldemar Hujo          : DFT-NL                                        
  H. Jonsson             : NEB                                           
  Holger Kruse           : gCP                                           
  Marcel Mueller         : wB97X-3c, vDZP basis set                      
  Hagen Neugebauer       : wr2SCAN                                       
  Tobias Risthaus        : range-separated hybrid DFT                    
  Lukas Wittmann         : regularized MP2, r2SCAN double-hybrids, wr2SCAN        
                                                                         
We gratefully acknowledge several colleagues who have allowed us to      
interface, adapt or use parts of their codes:                            
  Ed Valeev, F. Pavosevic, A. Kumar             : LibInt (2-el integral package), F12 methods 
  Garnet Chan, S. Sharma, J. Yang, R. Olivares  : DMRG                   
  Ulf Ekstrom                                   : XCFun DFT Library      
  Mihaly Kallay                                 : mrcc  (arbitrary order and MRCC methods)
  Frank Weinhold                                : gennbo (NPA and NBO analysis)           
  Simon Mueller                                 : openCOSMO-RS                            
  Christopher J. Cramer and Donald G. Truhlar   : smd solvation model                     
  S Lehtola, MJT Oliveira, MAL Marques          : LibXC Library                           
  Liviu Ungur et al                             : ANISO software                          


 Your calculation uses the libint2 library for the computation of 2-el integrals
 For citations please refer to: http://libint.valeyev.net

 Your ORCA version has been built with support for libXC version: 6.2.2
 For citations please refer to: https://libxc.gitlab.io

 This ORCA versions uses:
   CBLAS   interface :  Fast vector & matrix operations
   LAPACKE interface :  Fast linear algebra routines
   SCALAPACK package :  Parallel linear algebra routines
   Shared memory     :  Shared parallel matrices
   BLAS/LAPACK       :  OpenBLAS 0.3.27  USE64BITINT DYNAMIC_ARCH NO_AFFINITY SkylakeX SINGLE_THREADED
        Core in use  :  SkylakeX
   Copyright (c) 2011-2014, The OpenBLAS Project


NOTE: MaxCore=3000 MB was set to SCF,MP2,MDCI,CIPSI,MRCI and CIS
      => If you want to overwrite this, your respective input block should be placed after the MaxCore statement
Your calculation utilizes the atom-pairwise dispersion correction
with the Becke-Johnson damping scheme (D3BJ)


Warning: RI is on but no J-basis has been assigned. Assigning Def2/J (nothing to worry about!)
================================================================================

----- Orbital basis set information -----
Your calculation utilizes the basis: def2-SVP
   F. Weigend and R. Ahlrichs, Phys. Chem. Chem. Phys. 7, 3297 (2005).

----- AuxJ basis set information -----
Your calculation utilizes the auxiliary basis: def2/J
   F. Weigend, Phys. Chem. Chem. Phys. 8, 1057 (2006).

================================================================================
                                        WARNINGS
                       Please study these warnings very carefully!
================================================================================


WARNING: Geometry Optimization
  ===> : Switching off AutoStart
         For restart on a previous wavefunction, please use MOREAD

================================================================================
                                       INPUT FILE
================================================================================
NAME = aninline_water_2.inp
|  1> ! B3LYP def2-SVP OPT TightSCF D3BJ
|  2> 
|  3> %maxcore 3000
|  4> 
|  5> %pal
|  6> nprocs 20
|  7> end
|  8> 
|  9> * xyz 0 1
| 10>   N          -2.37588989997825      3.30055501377354      0.54477994267625
| 11>   C          -1.00628836566686      3.32142076594705      0.31022976403450
| 12>   C          -0.36098684037001      4.53238333126216     -0.02502714583417
| 13>   C          -0.21566504438871      2.16144792091425      0.42895293231482
| 14>   C           1.01416312453588      4.56720795363059     -0.25659783012012
| 15>   C           1.16220100142360      2.21040373551415      0.21126945677603
| 16>   C           1.78936815880938      3.40832535675197     -0.14234156454907
| 17>   H          -0.95040964541188      5.45244116795821     -0.06520895999454
| 18>   H          -0.69254839332101      1.21258333835806      0.69210707730513
| 19>   H           1.48919721096431      5.51780715090173     -0.51449896900542
| 20>   H           1.75094025982665      1.29429932880350      0.31085442363394
| 21>   H           2.86664598605009      3.44072282146539     -0.31859080200949
| 22>   H          -2.76592944523039      2.36971748162590      0.64194761794390
| 23>   H          -2.90152301895090      3.86167567862169     -0.12345793014353
| 24>   O          -2.63190156756296      4.45072191527742     -2.18410921259169
| 25>   H          -2.48936113449211      3.52413477088470     -2.42025002378307
| 26>   H          -1.72700238623682      4.77250226830955     -2.06236877665348
| 27> *
| 28> 
| 29>                          ****END OF INPUT****
================================================================================

                       *****************************
                       * Geometry Optimization Run *
                       *****************************

Geometry optimization settings:
Update method            Update   .... BFGS
Choice of coordinates    CoordSys .... (2022) Redundant Internals
Initial Hessian          InHess   .... Almloef's Model
Max. no of cycles        MaxIter  .... 51

Convergence Tolerances:
Energy Change            TolE     ....  5.0000e-06 Eh
Max. Gradient            TolMAXG  ....  3.0000e-04 Eh/bohr
RMS Gradient             TolRMSG  ....  1.0000e-04 Eh/bohr
Max. Displacement        TolMAXD  ....  4.0000e-03 bohr
RMS Displacement         TolRMSD  ....  2.0000e-03 bohr
Strict Convergence                .... False

------------------------------------------------------------------------------
                        ORCA OPTIMIZATION COORDINATE SETUP
------------------------------------------------------------------------------

The optimization will be done in redundant internal coordinates (2022)
Making redundant internal coordinates   ...  (2022 redundants) done
Evaluating the initial hessian          ...  (Almloef) done
Evaluating the coordinates              ...  done
Calculating the B-matrix                .... done
Calculating the G-matrix                .... done
Diagonalizing the G-matrix              .... done
The first mode is                       ....   80
The number of degrees of freedom        ....   45

    -----------------------------------------------------------------
                    Redundant Internal Coordinates


    -----------------------------------------------------------------
         Definition                    Initial Value    Approx d2E/dq
    -----------------------------------------------------------------
      1. B(C   1,N   0)                  1.3897         0.560221   
      2. B(C   2,C   1)                  1.4125         0.575166   
      3. B(C   3,C   1)                  1.4088         0.583102   
      4. B(C   4,C   2)                  1.3949         0.613546   
      5. B(C   5,C   3)                  1.3958         0.611593   
      6. B(C   6,C   5)                  1.3976         0.607506   
      7. B(C   6,C   4)                  1.3989         0.604631   
      8. B(H   7,C   2)                  1.0934         0.355620   
      9. B(H   8,C   3)                  1.0941         0.354742   
     10. B(H   9,C   4)                  1.0935         0.355460   
     11. B(H  10,C   5)                  1.0935         0.355478   
     12. B(H  11,C   6)                  1.0921         0.357358   
     13. B(H  12,N   0)                  1.0139         0.426524   
     14. B(H  13,N   0)                  1.0187         0.419143   
     15. B(O  14,H  13)                  2.1601         0.006329   
     16. B(H  15,O  14)                  0.9668         0.507184   
     17. B(H  15,H  13)                  2.3578         0.000654   
     18. B(H  16,C   2)                  2.4646         0.002308   
     19. B(H  16,H  13)                  2.4430         0.000478   
     20. B(H  16,H   7)                  2.2481         0.000979   
     21. B(H  16,O  14)                  0.9681         0.504723   
     22. A(C   1,N   0,H  13)          112.9265         0.350658   
     23. A(C   1,N   0,H  12)          114.1472         0.351693   
     24. A(H  12,N   0,H  13)          111.7199         0.301026   
     25. A(C   2,C   1,C   3)          118.0020         0.423574   
     26. A(N   0,C   1,C   2)          120.2096         0.417828   
     27. A(N   0,C   1,C   3)          121.7694         0.418850   
     28. A(C   4,C   2,H  16)          113.9991         0.172953   
     29. A(C   1,C   2,H   7)          118.9363         0.347729   
     30. A(C   1,C   2,H  16)           91.5195         0.171734   
     31. A(C   1,C   2,C   4)          120.7412         0.427451   
     32. A(H   7,C   2,H  16)           65.7238         0.153178   
     33. A(C   4,C   2,H   7)          120.2857         0.351540   
     34. A(C   5,C   3,H   8)          119.8810         0.351204   
     35. A(C   1,C   3,H   8)          119.3239         0.348388   
     36. A(C   1,C   3,C   5)          120.7949         0.428257   
     37. A(C   6,C   4,H   9)          119.9120         0.350645   
     38. A(C   2,C   4,C   6)          120.7997         0.431299   
     39. A(C   2,C   4,H   9)          119.2809         0.351513   
     40. A(C   3,C   5,C   6)          120.8293         0.431420   
     41. A(C   6,C   5,H  10)          119.9665         0.350929   
     42. A(C   3,C   5,H  10)          119.2015         0.351327   
     43. A(C   5,C   6,H  11)          120.5912         0.351242   
     44. A(C   4,C   6,H  11)          120.5888         0.350960   
     45. A(C   4,C   6,C   5)          118.8182         0.430534   
     46. A(C   2,H   7,H  16)           87.9579         0.131262   
     47. A(N   0,H  13,H  16)          118.5494         0.125866   
     48. A(O  14,H  13,H  15)           24.2058         0.104320   
     49. A(N   0,H  13,H  15)          118.0320         0.128575   
     50. A(N   0,H  13,O  14)          135.3651         0.170753   
     51. A(H  15,H  13,H  16)           36.5067         0.095908   
     52. A(O  14,H  13,H  16)           23.2504         0.103271   
     53. A(H  13,O  14,H  16)           95.0111         0.174264   
     54. A(H  13,O  14,H  15)           89.4302         0.174358   
     55. A(H  15,O  14,H  16)          102.2086         0.318974   
     56. A(H  13,H  15,O  14)           66.3639         0.130320   
     57. A(H   7,H  16,O  14)          122.3530         0.134214   
     58. A(C   2,H  16,H  13)           64.7915         0.100492   
     59. A(C   2,H  16,H   7)           26.3183         0.102514   
     60. A(C   2,H  16,O  14)          126.1311         0.157662   
     61. A(H   7,H  16,H  13)           64.7725         0.096568   
     62. A(H  13,H  16,O  14)           61.7385         0.127449   
     63. D(C   2,C   1,N   0,H  13)     42.3516         0.025066   
     64. D(C   3,C   1,N   0,H  13)   -139.2640         0.025066   
     65. D(C   2,C   1,N   0,H  12)    171.3987         0.025066   
     66. D(C   3,C   1,N   0,H  12)    -10.2169         0.025066   
     67. D(C   4,C   2,C   1,C   3)      1.2532         0.024659   
     68. D(C   4,C   2,C   1,N   0)    179.6976         0.024659   
     69. D(H   7,C   2,C   1,N   0)      1.8997         0.024659   
     70. D(H  16,C   2,C   1,N   0)    -61.0171         0.024659   
     71. D(H   7,C   2,C   1,C   3)   -176.5446         0.024659   
     72. D(H   8,C   3,C   1,C   2)    179.7323         0.023371   
     73. D(C   5,C   3,C   1,C   2)     -0.4593         0.023371   
     74. D(C   5,C   3,C   1,N   0)   -178.8780         0.023371   
     75. D(H   8,C   3,C   1,N   0)      1.3136         0.023371   
     76. D(C   6,C   4,C   2,C   1)     -0.9835         0.028268   
     77. D(C   6,C   4,C   2,H   7)    176.7847         0.028268   
     78. D(H   9,C   4,C   2,H   7)     -2.2250         0.028268   
     79. D(H   9,C   4,C   2,C   1)   -179.9932         0.028268   
     80. D(C   6,C   4,C   2,H  16)   -108.3542         0.028268   
     81. D(H  10,C   5,C   3,H   8)     -0.2186         0.025841   
     82. D(C   6,C   5,C   3,H   8)    179.1853         0.025841   
     83. D(C   6,C   5,C   3,C   1)     -0.6221         0.025841   
     84. D(H  10,C   5,C   3,C   1)    179.9740         0.025841   
     85. D(H  11,C   6,C   4,C   2)   -179.6333         0.025223   
     86. D(C   4,C   6,C   5,H  10)   -179.6904         0.025477   
     87. D(C   4,C   6,C   5,C   3)      0.9102         0.025477   
     88. D(H  11,C   6,C   4,H   9)     -0.6298         0.025223   
     89. D(H  11,C   6,C   5,H  10)     -0.1688         0.025477   
     90. D(C   5,C   6,C   4,H   9)    178.8918         0.025223   
     91. D(H  11,C   6,C   5,C   3)   -179.5682         0.025477   
     92. D(C   5,C   6,C   4,C   2)     -0.1116         0.025223   
     93. D(H  16,H   7,C   2,C   1)    -77.5194         0.117826   
     94. D(H  16,H   7,C   2,C   4)    104.6724         0.117826   
     95. D(H  16,H  13,N   0,C   1)      8.7832         0.241359   
     96. D(H  15,H  13,N   0,H  12)    -79.8330         0.241359   
     97. D(H  15,H  13,N   0,C   1)     50.4528         0.241359   
     98. D(O  14,H  13,N   0,H  12)   -101.1706         0.241359   
     99. D(O  14,H  13,N   0,C   1)     29.1151         0.241359   
    100. D(H  16,O  14,H  13,H  15)   -102.2056         0.001525   
    101. D(H  16,O  14,H  13,N   0)    -50.6395         0.001525   
    102. D(H  15,O  14,H  13,H  16)    102.2056         0.001525   
    103. D(H  15,O  14,H  13,N   0)     51.5661         0.001525   
    104. D(H  13,H  15,O  14,H  16)     95.0038         0.324274   
    105. D(O  14,H  15,H  13,H  16)    -40.4316         0.001504   
    106. D(O  14,H  15,H  13,N   0)   -141.4278         0.001504   
    107. D(C   2,H  16,O  14,H  15)    -82.8778         0.387615   
    108. D(H  13,H  16,O  14,H  15)    -90.5018         0.387615   
    109. D(H   7,H  16,O  14,H  13)    -24.0267         0.387615   
    110. D(C   2,H  16,H  13,N   0)    -31.3988         0.001503   
    111. D(H   7,H  16,H  13,H  15)   -160.0003         0.001503   
    112. D(H   7,H  16,H  13,O  14)    157.6526         0.001503   
    113. D(H   7,H  16,H  13,N   0)    -60.5479         0.001503   
    114. D(O  14,H  16,H  13,H  15)     42.3471         0.001503   
    115. D(O  14,H  16,H  13,N   0)    141.7995         0.001503   
    116. D(H  13,H  16,H   7,C   2)     83.7191         0.001510   
    117. D(O  14,H  16,H   7,C   2)    107.0747         0.001510   
    118. D(H  13,H  16,C   2,C   1)     37.6266         0.001503   
    119. D(H   7,H  16,C   2,C   4)   -113.8777         0.001503   
    120. D(H   7,H  16,O  14,H  15)   -114.5285         0.387615   
    121. D(H   7,H  16,C   2,C   1)    121.2647         0.001503   
    122. D(O  14,H  16,C   2,H   7)    -91.0590         0.001503   
    123. D(O  14,H  16,C   2,C   4)    155.0633         0.001503   
    124. D(C   2,H  16,O  14,H  13)      7.6240         0.387615   
    125. D(O  14,H  16,C   2,C   1)     30.2058         0.001503   
    -----------------------------------------------------------------

Number of atoms                         .... 17
Number of degrees of freedom            .... 125


         *************************************************************
         *                GEOMETRY OPTIMIZATION CYCLE   1            *
         *************************************************************
---------------------------------
CARTESIAN COORDINATES (ANGSTROEM)
---------------------------------
  N     -2.375890    3.300555    0.544780
  C     -1.006288    3.321421    0.310230
  C     -0.360987    4.532383   -0.025027
  C     -0.215665    2.161448    0.428953
  C      1.014163    4.567208   -0.256598
  C      1.162201    2.210404    0.211269
  C      1.789368    3.408325   -0.142342
  H     -0.950410    5.452441   -0.065209
  H     -0.692548    1.212583    0.692107
  H      1.489197    5.517807   -0.514499
  H      1.750940    1.294299    0.310854
  H      2.866646    3.440723   -0.318591
  H     -2.765929    2.369717    0.641948
  H     -2.901523    3.861676   -0.123458
  O     -2.631902    4.450722   -2.184109
  H     -2.489361    3.524135   -2.420250
  H     -1.727002    4.772502   -2.062369

----------------------------
CARTESIAN COORDINATES (A.U.)
----------------------------
  NO LB      ZA    FRAG     MASS         X           Y           Z
   0 N     7.0000    0    14.007   -4.489781    6.237145    1.029485
   1 C     6.0000    0    12.011   -1.901609    6.276576    0.586249
   2 C     6.0000    0    12.011   -0.682166    8.564963   -0.047294
   3 C     6.0000    0    12.011   -0.407548    4.084545    0.810604
   4 C     6.0000    0    12.011    1.916491    8.630772   -0.484900
   5 C     6.0000    0    12.011    2.196242    4.177058    0.399241
   6 C     6.0000    0    12.011    3.381416    6.440801   -0.268987
   7 H     1.0000    0     1.008   -1.796014   10.303621   -0.123227
   8 H     1.0000    0     1.008   -1.308727    2.291450    1.307893
   9 H     1.0000    0     1.008    2.814175   10.427144   -0.972262
  10 H     1.0000    0     1.008    3.308798    2.445871    0.587430
  11 H     1.0000    0     1.008    5.417176    6.502024   -0.602049
  12 H     1.0000    0     1.008   -5.226849    4.478117    1.213105
  13 H     1.0000    0     1.008   -5.483084    7.297509   -0.233302
  14 O     8.0000    0    15.999   -4.973573    8.410646   -4.127368
  15 H     1.0000    0     1.008   -4.704211    6.659650   -4.573610
  16 H     1.0000    0     1.008   -3.263562    9.018722   -3.897312

--------------------------------
INTERNAL COORDINATES (ANGSTROEM)
--------------------------------
 N      0   0   0     0.000000000000     0.00000000     0.00000000
 C      1   0   0     1.389696919728     0.00000000     0.00000000
 C      2   1   0     1.412530208087   120.20964603     0.00000000
 C      2   1   3     1.408799995758   121.76942647   178.38439354
 C      3   2   1     1.394946293634   120.74118725   179.69757581
 C      4   2   1     1.395814316988   120.79486347   181.12200150
 C      6   4   2     1.397639298365   120.82929359   359.37794644
 H      3   2   1     1.093407629459   118.93626278     1.89970941
 H      4   2   1     1.094080357444   119.32385624     1.31358583
 H      5   3   2     1.093530618940   119.28094939   180.00679504
 H      6   4   2     1.093516512909   119.20148589   179.97400887
 H      7   6   4     1.092080998136   120.59122042   180.43182987
 H      1   2   3     1.013918593987   114.14715220   171.39871363
 H      1   2   3     1.018669932290   112.92654092    42.35158782
 O     14   1   2     2.160082152100   135.36513405    29.11514298
 H     15  14   1     0.966769876405    89.43022031    51.56614593
 H     15  14   1     0.968093930208    95.01106584   309.36051957

---------------------------
INTERNAL COORDINATES (A.U.)
---------------------------
 N      0   0   0     0.000000000000     0.00000000     0.00000000
 C      1   0   0     2.626146587441     0.00000000     0.00000000
 C      2   1   0     2.669295249176   120.20964603     0.00000000
 C      2   1   3     2.662246169453   121.76942647   178.38439354
 C      3   2   1     2.636066466498   120.74118725   179.69757581
 C      4   2   1     2.637706792913   120.79486347   181.12200150
 C      6   4   2     2.641155507916   120.82929359   359.37794644
 H      3   2   1     2.066240972417   118.93626278     1.89970941
 H      4   2   1     2.067512244071   119.32385624     1.31358583
 H      5   3   2     2.066473388854   119.28094939   180.00679504
 H      6   4   2     2.066446732318   119.20148589   179.97400887
 H      7   6   4     2.063734002536   120.59122042   180.43182987
 H      1   2   3     1.916028464726   114.14715220   171.39871363
 H      1   2   3     1.925007192888   112.92654092    42.35158782
 O     14   1   2     4.081963694241   135.36513405    29.11514298
 H     15  14   1     1.826930300930    89.43022031    51.56614593
 H     15  14   1     1.829432400004    95.01106584   309.36051957

---------------------
BASIS SET INFORMATION
---------------------
There are 4 groups of distinct atoms

 Group   1 Type N   : 7s4p1d contracted to 3s2p1d pattern {511/31/1}
 Group   2 Type C   : 7s4p1d contracted to 3s2p1d pattern {511/31/1}
 Group   3 Type H   : 4s1p contracted to 2s1p pattern {31/1}
 Group   4 Type O   : 7s4p1d contracted to 3s2p1d pattern {511/31/1}

Atom   0N    basis set group =>   1
Atom   1C    basis set group =>   2
Atom   2C    basis set group =>   2
Atom   3C    basis set group =>   2
Atom   4C    basis set group =>   2
Atom   5C    basis set group =>   2
Atom   6C    basis set group =>   2
Atom   7H    basis set group =>   3
Atom   8H    basis set group =>   3
Atom   9H    basis set group =>   3
Atom  10H    basis set group =>   3
Atom  11H    basis set group =>   3
Atom  12H    basis set group =>   3
Atom  13H    basis set group =>   3
Atom  14O    basis set group =>   4
Atom  15H    basis set group =>   3
Atom  16H    basis set group =>   3
---------------------------------
AUXILIARY/J BASIS SET INFORMATION
---------------------------------
There are 4 groups of distinct atoms

 Group   1 Type N   : 12s5p4d2f1g contracted to 6s4p3d1f1g pattern {711111/2111/211/2/1}
 Group   2 Type C   : 12s5p4d2f1g contracted to 6s4p3d1f1g pattern {711111/2111/211/2/1}
 Group   3 Type H   : 5s2p1d contracted to 3s1p1d pattern {311/2/1}
 Group   4 Type O   : 12s5p4d2f1g contracted to 6s4p3d1f1g pattern {711111/2111/211/2/1}

Atom   0N    basis set group =>   1
Atom   1C    basis set group =>   2
Atom   2C    basis set group =>   2
Atom   3C    basis set group =>   2
Atom   4C    basis set group =>   2
Atom   5C    basis set group =>   2
Atom   6C    basis set group =>   2
Atom   7H    basis set group =>   3
Atom   8H    basis set group =>   3
Atom   9H    basis set group =>   3
Atom  10H    basis set group =>   3
Atom  11H    basis set group =>   3
Atom  12H    basis set group =>   3
Atom  13H    basis set group =>   3
Atom  14O    basis set group =>   4
Atom  15H    basis set group =>   3
Atom  16H    basis set group =>   3


           ************************************************************
           *        Program running with 20 parallel MPI-processes    *
           *              working on a common directory               *
           ************************************************************
------------------------------------------------------------------------------
                             ORCA STARTUP CALCULATIONS
                           -- RI-GTO INTEGRALS CHOSEN --
------------------------------------------------------------------------------
------------------------------------------------------------------------------
                   ___                                                        
                  /   \      - P O W E R E D   B Y -                         
                 /     \                                                     
                 |  |  |   _    _      __       _____    __    __             
                 |  |  |  | |  | |    /  \     |  _  \  |  |  /  |          
                  \  \/   | |  | |   /    \    | | | |  |  | /  /          
                 / \  \   | |__| |  /  /\  \   | |_| |  |  |/  /          
                |  |  |   |  __  | /  /__\  \  |    /   |      \           
                |  |  |   | |  | | |   __   |  |    \   |  |\   \          
                \     /   | |  | | |  |  |  |  | |\  \  |  | \   \       
                 \___/    |_|  |_| |__|  |__|  |_| \__\ |__|  \__/        
                                                                              
                      - O R C A' S   B I G   F R I E N D -                    
                                      &                                       
                       - I N T E G R A L  F E E D E R -                       
                                                                              
 v1 FN, 2020, v2 2021, v3 2022-2024                                           
------------------------------------------------------------------------------


----------------------
SHARK INTEGRAL PACKAGE
----------------------

Number of atoms                             ...     17
Number of basis functions                   ...    157
Number of shells                            ...     75
Maximum angular momentum                    ...      2
Integral batch strategy                     ... SHARK/LIBINT Hybrid
RI-J (if used) integral strategy            ... SPLIT-RIJ (Revised 2003 algorithm where possible)
Printlevel                                  ...      1
Contraction scheme used                     ... SEGMENTED contraction
Prescreening option                         ... SCHWARTZ
   Thresh                                   ... 2.500e-11
   Tcut                                     ... 2.500e-12
   Tpresel                                  ... 2.500e-12 
Coulomb Range Separation                    ... NOT USED
Exchange Range Separation                   ... NOT USED
Multipole approximations                    ... NOT USED
Finite Nucleus Model                        ... NOT USED
CABS basis                                  ... NOT available
Auxiliary Coulomb fitting basis             ... AVAILABLE
   # of basis functions in Aux-J            ...    491
   # of shells in Aux-J                     ...    165
   Maximum angular momentum in Aux-J        ...      4
Auxiliary J/K fitting basis                 ... NOT available
Auxiliary Correlation fitting basis         ... NOT available
Auxiliary 'external' fitting basis          ... NOT available

Checking pre-screening integrals            ... done (  0.0 sec) Dimension = 75
Check shell pair data                       ... done (  0.0 sec)
Shell pair information
Shell pair cut-off parameter TPreSel        ...   2.5e-12
Total number of shell pairs                 ...      2850
Shell pairs after pre-screening             ...      2680
Total number of primitive shell pairs       ...     10142
Primitive shell pairs kept                  ...      6988
          la=0 lb=0:    854 shell pairs
          la=1 lb=0:    986 shell pairs
          la=1 lb=1:    304 shell pairs
          la=2 lb=0:    314 shell pairs
          la=2 lb=1:    188 shell pairs
          la=2 lb=2:     34 shell pairs

Calculating one electron integrals          ... done (  0.0 sec)
Calculating RI/J V-Matrix + Cholesky decomp.... done (  0.0 sec)
Calculating Nuclear repulsion               ... done (  0.0 sec) ENN=    350.903861664923 Eh

Diagonalization of the overlap matrix:
Smallest eigenvalue                        ... 2.793e-04
Time for diagonalization                   ...    0.002 sec
Threshold for overlap eigenvalues          ... 1.000e-07
Number of eigenvalues below threshold      ... 0
Time for construction of square roots      ...    0.002 sec
Total time needed                          ...    0.009 sec

-------------------
DFT GRID GENERATION
-------------------

General Integration Accuracy     IntAcc      ... 4.388
Radial Grid Type                 RadialGrid  ... OptM3 with GC (2021)
Angular Grid (max. ang.)         AngularGrid ... 4 (Lebedev-302)
Angular grid pruning method      GridPruning ... 4 (adaptive)
Weight generation scheme         WeightScheme... mBecke (2022)
Basis function cutoff            BFCut       ... 1.0000e-11
Integration weight cutoff        WCut        ... 1.0000e-14
Partially contracted basis set               ... off
Rotationally invariant grid construction     ... off
Angular grids for H and He will be reduced by one unit

Total number of grid points                  ...    77210
Total number of batches                      ...     1214
Average number of points per batch           ...       63
Average number of grid points per atom       ...     4542

--------------------
COSX GRID GENERATION
--------------------

GRIDX 1
-------
General Integration Accuracy     IntAcc      ... 3.816
Radial Grid Type                 RadialGrid  ... OptM3 with GC (2021)
Angular Grid (max. ang.)         AngularGrid ... 1 (Lebedev-50)
Angular grid pruning method      GridPruning ... 4 (adaptive)
Weight generation scheme         WeightScheme... mBecke (2022)
Basis function cutoff            BFCut       ... 1.0000e-11
Integration weight cutoff        WCut        ... 1.0000e-14
Partially contracted basis set               ... on
Rotationally invariant grid construction     ... off
Angular grids for H and He will be reduced by one unit

Total number of grid points                  ...     9894
Total number of batches                      ...       86
Average number of points per batch           ...      115
Average number of grid points per atom       ...      582
UseSFitting                                  ... on

GRIDX 2
-------
General Integration Accuracy     IntAcc      ... 4.020
Radial Grid Type                 RadialGrid  ... OptM3 with GC (2021)
Angular Grid (max. ang.)         AngularGrid ... 2 (Lebedev-110)
Angular grid pruning method      GridPruning ... 4 (adaptive)
Weight generation scheme         WeightScheme... mBecke (2022)
Basis function cutoff            BFCut       ... 1.0000e-11
Integration weight cutoff        WCut        ... 1.0000e-14
Partially contracted basis set               ... on
Rotationally invariant grid construction     ... off
Angular grids for H and He will be reduced by one unit

Total number of grid points                  ...    21262
Total number of batches                      ...      176
Average number of points per batch           ...      120
Average number of grid points per atom       ...     1251
UseSFitting                                  ... on

GRIDX 3
-------
General Integration Accuracy     IntAcc      ... 4.338
Radial Grid Type                 RadialGrid  ... OptM3 with GC (2021)
Angular Grid (max. ang.)         AngularGrid ... 3 (Lebedev-194)
Angular grid pruning method      GridPruning ... 4 (adaptive)
Weight generation scheme         WeightScheme... mBecke (2022)
Basis function cutoff            BFCut       ... 1.0000e-11
Integration weight cutoff        WCut        ... 1.0000e-14
Partially contracted basis set               ... on
Rotationally invariant grid construction     ... off
Angular grids for H and He will be reduced by one unit

Total number of grid points                  ...    46624
Total number of batches                      ...      373
Average number of points per batch           ...      124
Average number of grid points per atom       ...     2743
UseSFitting                                  ... on
Initializing property integral containers    ... done (  0.0 sec)

SHARK setup successfully completed in   0.8 seconds

Maximum memory used throughout the entire STARTUP-calculation: 19.3 MB


           ************************************************************
           *        Program running with 20 parallel MPI-processes    *
           *              working on a common directory               *
           ************************************************************
-------------------------------------------------------------------------------
                                 ORCA GUESS
                   Start orbitals & Density for SCF / CASSCF
-------------------------------------------------------------------------------

------------
SCF SETTINGS
------------
Hamiltonian:
 Density Functional     Method          .... DFT(GTOs)
 Exchange Functional    Exchange        .... B88
   X-Alpha parameter    XAlpha          ....  0.666667
   Becke's b parameter  XBeta           ....  0.004200
 Correlation Functional Correlation     .... LYP
 LDA part of GGA corr.  LDAOpt          .... VWN-5
 Gradients option       PostSCFGGA      .... off
 Hybrid DFT is turned on
   Fraction HF Exchange ScalHFX         ....  0.200000
   Scaling of DF-GGA-X  ScalDFX         ....  0.720000
   Scaling of DF-GGA-C  ScalDFC         ....  0.810000
   Scaling of DF-LDA-C  ScalLDAC        ....  1.000000
   Perturbative correction              ....  0.000000
   NL short-range parameter             ....  4.800000
 RI-approximation to the Coulomb term is turned on
   Number of AuxJ basis functions       .... 491
   RIJ-COSX (HFX calculated with COS-X)).... on


General Settings:
 Integral files         IntName         .... aninline_water_2
 Hartree-Fock type      HFTyp           .... RHF
 Total Charge           Charge          ....    0
 Multiplicity           Mult            ....    1
 Number of Electrons    NEL             ....   60
 Basis Dimension        Dim             ....  157
 Nuclear Repulsion      ENuc            ....    350.9038616649 Eh

Convergence Acceleration:
 AO-DIIS                CNVDIIS         .... on
   Start iteration      DIISMaxIt       ....    12
   Startup error        DIISStart       ....  0.200000
   # of expansion vecs  DIISMaxEq       ....     5
   Bias factor          DIISBfac        ....   1.050
   Max. coefficient     DIISMaxC        ....  10.000
 MO-DIIS                CNVKDIIS        .... off
 Trust-Rad. Augm. Hess. CNVTRAH         .... auto
   Auto Start mean grad. ratio tolernc. ....  1.125000
   Auto Start start iteration           ....    50
   Auto Start num. interpolation iter.  ....    10
   Max. Number of Micro iterations      ....    24
   Max. Number of Macro iterations      .... Maxiter - #DIIS iter
   Number of Davidson start vectors     ....     2
   Converg. threshold    (grad. norm)   ....   1.000e-05
   Grad. Scal. Fac. for Micro threshold ....   0.100
   Minimum threshold for Micro iter.    ....   1.000e-02
   NR start threshold (gradient norm)   ....   1.000e-04
   Initial trust radius                 ....   0.400
   Minimum AH scaling param. (alpha)    ....   1.000
   Maximum AH scaling param. (alpha)    .... 1000.000
   Quad. conv. algorithm                .... NR
   White noise on init. David. guess    .... on
   Maximum white noise                  ....   0.010
   Pseudo random numbers                .... off
   Inactive MOs                         .... canonical
   Orbital update algorithm             .... Taylor
   Preconditioner                       .... Diag
   Full preconditioner red. dimension   ....   250
 SOSCF                  CNVSOSCF        .... on
   Start iteration      SOSCFMaxIt      ....   150
   Startup grad/error   SOSCFStart      ....  0.003300
   Hessian update       SOSCFHessUp     .... L-BFGS
 Level Shifting         CNVShift        .... on
   Level shift para.    LevelShift      ....    0.2500
   Turn off err/grad.   ShiftErr        ....    0.0010
 Zerner damping         CNVZerner       .... off
 Static damping         CNVDamp         .... on
   Fraction old density DampFac         ....    0.7000
   Max. Damping (<1)    DampMax         ....    0.9800
   Min. Damping (>=0)   DampMin         ....    0.0000
   Turn off err/grad.   DampErr         ....    0.1000

SCF Procedure:
 Maximum # iterations   MaxIter         ....   125
 SCF integral mode      SCFMode         .... Direct
   Integral package                     .... SHARK and LIBINT hybrid scheme
 Reset frequency        DirectResetFreq ....    20
 Integral Threshold     Thresh          ....  2.500e-11 Eh
 Primitive CutOff       TCut            ....  2.500e-12 Eh

Convergence Tolerance:
 Convergence Check Mode ConvCheckMode   .... Total+1el-Energy
 Convergence forced     ConvForced      .... 0
 Energy Change          TolE            ....  1.000e-08 Eh
 1-El. energy change                    ....  1.000e-05 Eh
 Orbital Gradient       TolG            ....  1.000e-05
 Orbital Rotation angle TolX            ....  1.000e-05
 DIIS Error             TolErr          ....  5.000e-07

------------------------------
INITIAL GUESS: MODEL POTENTIAL
------------------------------
Loading Hartree-Fock densities                     ... done
Calculating cut-offs                               ... done
Initializing the effective Hamiltonian             ... done
Setting up the integral package (SHARK)            ... done
Starting the Coulomb interaction                   ... done (   0.0 sec)
Making the grid                                    ... done (   0.1 sec)
Mapping shells                                     ... done
Starting the XC term evaluation                    ... done (   0.0 sec)
  promolecular density results
     # of electrons  =     60.000276065
     EX              =    -48.275787613
     EC              =     -2.001152844
     EX+EC           =    -50.276940456
Transforming the Hamiltonian                       ... done (   0.0 sec)
Diagonalizing the Hamiltonian                      ... done (   0.0 sec)
Back transforming the eigenvectors                 ... done (   0.0 sec)
Now organizing SCF variables                       ... done
                      ------------------
                      INITIAL GUESS DONE (   0.2 sec)
                      ------------------
             **** ENERGY FILE WAS UPDATED (aninline_water_2.en.tmp) ****
Finished Guess after   0.7 sec
Maximum memory used throughout the entire GUESS-calculation: 11.2 MB


           ************************************************************
           *        Program running with 20 parallel MPI-processes    *
           *              working on a common directory               *
           ************************************************************

-------------------------------------------------------------------------------------------
                                      ORCA LEAN-SCF
                              memory conserving SCF solver
-------------------------------------------------------------------------------------------

----------------------------------------D-I-I-S--------------------------------------------
Iteration    Energy (Eh)           Delta-E    RMSDP     MaxDP     DIISErr   Damp  Time(sec)
-------------------------------------------------------------------------------------------
               ***  Starting incremental Fock matrix formation  ***
    1    -363.2735107999695288     0.00e+00  4.23e-03  8.47e-02  2.89e-01  0.700   0.4
    2    -363.4019816568113015    -1.28e-01  2.86e-03  4.68e-02  1.21e-01  0.700   0.3
                               ***Turning on AO-DIIS***
    3    -363.4530142217724347    -5.10e-02  1.21e-03  1.52e-02  3.90e-02  0.700   0.3
    4    -363.4831045911323031    -3.01e-02  2.11e-03  2.71e-02  1.93e-02  0.000   0.2
    5    -363.5488660108571253    -6.58e-02  3.16e-04  4.84e-03  5.74e-03  0.000   0.2
                              *** Initializing SOSCF ***
---------------------------------------S-O-S-C-F--------------------------------------
Iteration    Energy (Eh)           Delta-E    RMSDP     MaxDP     MaxGrad    Time(sec)
--------------------------------------------------------------------------------------
    6    -363.5492096759939500    -3.44e-04  1.26e-04  2.12e-03  2.32e-03     0.3
               *** Restarting incremental Fock matrix formation ***
    7    -363.5492023252551803     7.35e-06  7.36e-05  1.14e-03  2.45e-04     0.3
    8    -363.5492026643498207    -3.39e-07  2.92e-05  5.46e-04  2.27e-04     0.3
    9    -363.5492050471423795    -2.38e-06  1.35e-05  2.37e-04  8.72e-05     0.3
   10    -363.5492049590697548     8.81e-08  6.94e-06  1.54e-04  1.02e-04     0.3
   11    -363.5492051491615371    -1.90e-07  2.46e-06  5.95e-05  1.37e-05     0.3
   12    -363.5492051491262941     3.52e-11  1.29e-06  3.94e-05  1.82e-05     0.2
                 **** Energy Check signals convergence ****

               *****************************************************
               *                     SUCCESS                       *
               *           SCF CONVERGED AFTER  12 CYCLES          *
               *****************************************************

Recomputing exchange energy using gridx3       ... done (    0.309 sec)
Old exchange energy                            :     -9.813394909 Eh
New exchange energy                            :     -9.813407076 Eh
Exchange energy change after final integration :     -0.000012167 Eh
Total energy after final integration           :   -363.549217316 Eh
             **** ENERGY FILE WAS UPDATED (aninline_water_2.en.tmp) ****

----------------
TOTAL SCF ENERGY
----------------

Total Energy       :       -363.54921731620630 Eh           -9892.67714 eV

Components:
Nuclear Repulsion  :        350.90386166492311 Eh            9548.57952 eV
Electronic Energy  :       -714.45306681404941 Eh          -19441.25632 eV
One Electron Energy:      -1187.71927663037241 Eh          -32319.48461 eV
Two Electron Energy:        473.26620981632300 Eh           12878.22829 eV

Virial components:
Potential Energy   :       -723.51490657111981 Eh          -19687.84152 eV
Kinetic Energy     :        359.96568925491357 Eh            9795.16438 eV
Virial Ratio       :          2.00995519342055

DFT components:
N(Alpha)           :       29.999972421358 electrons
N(Beta)            :       29.999972421358 electrons
N(Total)           :       59.999944842717 electrons
E(X)               :      -38.980905206528 Eh       
E(C)               :       -2.370286911707 Eh       
E(XC)              :      -41.351192118235 Eh       

---------------
SCF CONVERGENCE
---------------

  Last Energy change         ...   -3.5243e-11  Tolerance :   1.0000e-08
  Last MAX-Density change    ...    3.9442e-05  Tolerance :   1.0000e-07
  Last RMS-Density change    ...    1.2890e-06  Tolerance :   5.0000e-09
  Last DIIS Error            ...    2.3188e-03  Tolerance :   5.0000e-07
  Last Orbital Gradient      ...    1.8173e-05  Tolerance :   1.0000e-05
  Last Orbital Rotation      ...    3.0311e-05  Tolerance :   1.0000e-05


----------------
ORBITAL ENERGIES
----------------

  NO   OCC          E(Eh)            E(eV) 
   0   2.0000     -19.136808      -520.7390 
   1   2.0000     -14.321193      -389.6995 
   2   2.0000     -10.222973      -278.1812 
   3   2.0000     -10.186937      -277.2006 
   4   2.0000     -10.186182      -277.1801 
   5   2.0000     -10.180158      -277.0162 
   6   2.0000     -10.179920      -277.0097 
   7   2.0000     -10.175916      -276.9008 
   8   2.0000      -0.995980       -27.1020 
   9   2.0000      -0.902750       -24.5651 
  10   2.0000      -0.823842       -22.4179 
  11   2.0000      -0.732788       -19.9402 
  12   2.0000      -0.711749       -19.3677 
  13   2.0000      -0.602892       -16.4055 
  14   2.0000      -0.587270       -15.9804 
  15   2.0000      -0.525706       -14.3052 
  16   2.0000      -0.516211       -14.0468 
  17   2.0000      -0.499129       -13.5820 
  18   2.0000      -0.469623       -12.7791 
  19   2.0000      -0.429612       -11.6903 
  20   2.0000      -0.425324       -11.5737 
  21   2.0000      -0.415193       -11.2980 
  22   2.0000      -0.391890       -10.6639 
  23   2.0000      -0.373775       -10.1709 
  24   2.0000      -0.356727        -9.7070 
  25   2.0000      -0.339955        -9.2507 
  26   2.0000      -0.313891        -8.5414 
  27   2.0000      -0.300654        -8.1812 
  28   2.0000      -0.251870        -6.8537 
  29   2.0000      -0.204824        -5.5735 
  30   0.0000      -0.006880        -0.1872 
  31   0.0000       0.010172         0.2768 
  32   0.0000       0.044713         1.2167 
  33   0.0000       0.068411         1.8616 
  34   0.0000       0.077522         2.1095 
  35   0.0000       0.107281         2.9193 
  36   0.0000       0.119313         3.2467 
  37   0.0000       0.137441         3.7400 
  38   0.0000       0.145757         3.9663 
  39   0.0000       0.157942         4.2978 
  40   0.0000       0.163719         4.4550 
*Only the first 10 virtual orbitals were printed.

                    ********************************
                    * MULLIKEN POPULATION ANALYSIS *
                    ********************************

-----------------------
MULLIKEN ATOMIC CHARGES
-----------------------
   0 N :   -0.077580
   1 C :    0.024304
   2 C :   -0.069491
   3 C :   -0.023599
   4 C :    0.015441
   5 C :    0.016383
   6 C :    0.012316
   7 H :   -0.025604
   8 H :   -0.047721
   9 H :   -0.019916
  10 H :   -0.020652
  11 H :   -0.025199
  12 H :    0.092913
  13 H :    0.100684
  14 O :   -0.269319
  15 H :    0.160147
  16 H :    0.156892
Sum of atomic charges:    0.0000000

--------------------------------
MULLIKEN REDUCED ORBITAL CHARGES
--------------------------------
  0 N s       :     3.297783  s :     3.297783
      pz      :     1.560654  p :     3.761665
      px      :     1.055055
      py      :     1.145956
      dz2     :     0.002719  d :     0.018131
      dxz     :     0.004760
      dyz     :     0.001539
      dx2y2   :     0.005250
      dxy     :     0.003863

  1 C s       :     2.999841  s :     2.999841
      pz      :     0.948404  p :     2.914453
      px      :     0.941428
      py      :     1.024621
      dz2     :     0.005167  d :     0.061401
      dxz     :     0.014133
      dyz     :     0.006604
      dx2y2   :     0.018240
      dxy     :     0.017257

  2 C s       :     3.240635  s :     3.240635
      pz      :     1.065621  p :     2.796466
      px      :     0.862463
      py      :     0.868382
      dz2     :     0.002993  d :     0.032390
      dxz     :     0.005050
      dyz     :     0.003313
      dx2y2   :     0.009018
      dxy     :     0.012017

  3 C s       :     3.223481  s :     3.223481
      pz      :     1.055288  p :     2.767589
      px      :     0.878675
      py      :     0.833625
      dz2     :     0.002662  d :     0.032530
      dxz     :     0.005402
      dyz     :     0.003197
      dx2y2   :     0.009434
      dxy     :     0.011834

  4 C s       :     3.166154  s :     3.166154
      pz      :     0.970215  p :     2.782432
      px      :     0.937537
      py      :     0.874680
      dz2     :     0.002565  d :     0.035973
      dxz     :     0.006907
      dyz     :     0.003857
      dx2y2   :     0.011282
      dxy     :     0.011362

  5 C s       :     3.163284  s :     3.163284
      pz      :     0.972016  p :     2.784409
      px      :     0.930976
      py      :     0.881417
      dz2     :     0.003332  d :     0.035924
      dxz     :     0.006356
      dyz     :     0.003814
      dx2y2   :     0.010532
      dxy     :     0.011889

  6 C s       :     3.154318  s :     3.154318
      pz      :     1.028295  p :     2.799189
      px      :     0.814892
      py      :     0.956001
      dz2     :     0.002890  d :     0.034178
      dxz     :     0.002953
      dyz     :     0.005941
      dx2y2   :     0.012086
      dxy     :     0.010309

  7 H s       :     1.002563  s :     1.002563
      pz      :     0.005224  p :     0.023041
      px      :     0.006510
      py      :     0.011307

  8 H s       :     1.024868  s :     1.024868
      pz      :     0.005791  p :     0.022853
      px      :     0.005253
      py      :     0.011809

  9 H s       :     0.997252  s :     0.997252
      pz      :     0.005132  p :     0.022664
      px      :     0.005600
      py      :     0.011931

 10 H s       :     0.997943  s :     0.997943
      pz      :     0.004643  p :     0.022709
      px      :     0.006767
      py      :     0.011299

 11 H s       :     1.002272  s :     1.002272
      pz      :     0.005313  p :     0.022926
      px      :     0.014307
      py      :     0.003306

 12 H s       :     0.861960  s :     0.861960
      pz      :     0.013149  p :     0.045127
      px      :     0.010403
      py      :     0.021575

 13 H s       :     0.851740  s :     0.851740
      pz      :     0.019703  p :     0.047576
      px      :     0.012087
      py      :     0.015786

 14 O s       :     3.682713  s :     3.682713
      pz      :     1.856530  p :     4.575923
      px      :     1.423402
      py      :     1.295991
      dz2     :     0.001682  d :     0.010683
      dxz     :     0.000962
      dyz     :     0.000766
      dx2y2   :     0.005413
      dxy     :     0.001860

 15 H s       :     0.769414  s :     0.769414
      pz      :     0.020359  p :     0.070439
      px      :     0.016191
      py      :     0.033888

 16 H s       :     0.772022  s :     0.772022
      pz      :     0.019963  p :     0.071087
      px      :     0.032649
      py      :     0.018475



                     *******************************
                     * LOEWDIN POPULATION ANALYSIS *
                     *******************************

----------------------
LOEWDIN ATOMIC CHARGES
----------------------
   0 N :   -0.038868
   1 C :    0.017853
   2 C :   -0.078300
   3 C :   -0.072397
   4 C :   -0.020554
   5 C :   -0.015786
   6 C :   -0.062025
   7 H :    0.023236
   8 H :    0.019404
   9 H :    0.025959
  10 H :    0.025994
  11 H :    0.023145
  12 H :    0.063924
  13 H :    0.052980
  14 O :   -0.116855
  15 H :    0.079680
  16 H :    0.072609

-------------------------------
LOEWDIN REDUCED ORBITAL CHARGES
-------------------------------
  0 N s       :     3.070357  s :     3.070357
      pz      :     1.542938  p :     3.924219
      px      :     1.143206
      py      :     1.238075
      dz2     :     0.005212  d :     0.044291
      dxz     :     0.009948
      dyz     :     0.003212
      dx2y2   :     0.014494
      dxy     :     0.011425

  1 C s       :     2.841999  s :     2.841999
      pz      :     0.940539  p :     2.995555
      px      :     0.967946
      py      :     1.087071
      dz2     :     0.010857  d :     0.144593
      dxz     :     0.029168
      dyz     :     0.014301
      dx2y2   :     0.046573
      dxy     :     0.043693

  2 C s       :     2.864418  s :     2.864418
      pz      :     1.047696  p :     3.127613
      px      :     1.052565
      py      :     1.027353
      dz2     :     0.006916  d :     0.086269
      dxz     :     0.011076
      dyz     :     0.007103
      dx2y2   :     0.027270
      dxy     :     0.033904

  3 C s       :     2.862093  s :     2.862093
      pz      :     1.045463  p :     3.123588
      px      :     1.055644
      py      :     1.022481
      dz2     :     0.006298  d :     0.086716
      dxz     :     0.011864
      dyz     :     0.006516
      dx2y2   :     0.028333
      dxy     :     0.033706

  4 C s       :     2.862665  s :     2.862665
      pz      :     0.964338  p :     3.065359
      px      :     1.059467
      py      :     1.041553
      dz2     :     0.006012  d :     0.092530
      dxz     :     0.015418
      dyz     :     0.007935
      dx2y2   :     0.031383
      dxy     :     0.031781

  5 C s       :     2.862292  s :     2.862292
      pz      :     0.962816  p :     3.061197
      px      :     1.055424
      py      :     1.042957
      dz2     :     0.007685  d :     0.092298
      dxz     :     0.014149
      dyz     :     0.008153
      dx2y2   :     0.029685
      dxy     :     0.032625

  6 C s       :     2.859002  s :     2.859002
      pz      :     1.021791  p :     3.113797
      px      :     1.031995
      py      :     1.060011
      dz2     :     0.006779  d :     0.089226
      dxz     :     0.005818
      dyz     :     0.013651
      dx2y2   :     0.033395
      dxy     :     0.029585

  7 H s       :     0.907740  s :     0.907740
      pz      :     0.016340  p :     0.069024
      px      :     0.019600
      py      :     0.033084

  8 H s       :     0.912928  s :     0.912928
      pz      :     0.017736  p :     0.067668
      px      :     0.015941
      py      :     0.033991

  9 H s       :     0.908065  s :     0.908065
      pz      :     0.015311  p :     0.065976
      px      :     0.016645
      py      :     0.034020

 10 H s       :     0.908137  s :     0.908137
      pz      :     0.013824  p :     0.065869
      px      :     0.019680
      py      :     0.032366

 11 H s       :     0.909500  s :     0.909500
      pz      :     0.016138  p :     0.067355
      px      :     0.040220
      py      :     0.010996

 12 H s       :     0.815597  s :     0.815597
      pz      :     0.036493  p :     0.120479
      px      :     0.024902
      py      :     0.059084

 13 H s       :     0.815700  s :     0.815700
      pz      :     0.060089  p :     0.131320
      px      :     0.031318
      py      :     0.039913

 14 O s       :     3.432787  s :     3.432787
      pz      :     1.805988  p :     4.664511
      px      :     1.493733
      py      :     1.364791
      dz2     :     0.003497  d :     0.019557
      dxz     :     0.000638
      dyz     :     0.001416
      dx2y2   :     0.010847
      dxy     :     0.003160

 15 H s       :     0.744482  s :     0.744482
      pz      :     0.054996  p :     0.175838
      px      :     0.036734
      py      :     0.084107

 16 H s       :     0.747141  s :     0.747141
      pz      :     0.052697  p :     0.180250
      px      :     0.090732
      py      :     0.036821



                      *****************************
                      * MAYER POPULATION ANALYSIS *
                      *****************************

  NA   - Mulliken gross atomic population
  ZA   - Total nuclear charge
  QA   - Mulliken gross atomic charge
  VA   - Mayer's total valence
  BVA  - Mayer's bonded valence
  FA   - Mayer's free valence

  ATOM       NA         ZA         QA         VA         BVA        FA
  0 N      7.0776     7.0000    -0.0776     3.1483     3.1483     0.0000
  1 C      5.9757     6.0000     0.0243     4.0883     4.0883     0.0000
  2 C      6.0695     6.0000    -0.0695     3.8242     3.8242     0.0000
  3 C      6.0236     6.0000    -0.0236     3.8006     3.8006    -0.0000
  4 C      5.9846     6.0000     0.0154     3.8431     3.8431     0.0000
  5 C      5.9836     6.0000     0.0164     3.8536     3.8536    -0.0000
  6 C      5.9877     6.0000     0.0123     3.8117     3.8117     0.0000
  7 H      1.0256     1.0000    -0.0256     0.9930     0.9930    -0.0000
  8 H      1.0477     1.0000    -0.0477     0.9853     0.9853    -0.0000
  9 H      1.0199     1.0000    -0.0199     0.9768     0.9768     0.0000
 10 H      1.0207     1.0000    -0.0207     0.9765     0.9765     0.0000
 11 H      1.0252     1.0000    -0.0252     0.9777     0.9777     0.0000
 12 H      0.9071     1.0000     0.0929     1.0044     1.0044     0.0000
 13 H      0.8993     1.0000     0.1007     1.0769     1.0769     0.0000
 14 O      8.2693     8.0000    -0.2693     2.1264     2.1264     0.0000
 15 H      0.8399     1.0000     0.1601     1.0124     1.0124     0.0000
 16 H      0.8431     1.0000     0.1569     1.0412     1.0412     0.0000

  Mayer bond orders larger than 0.100000
B(  0-N ,  1-C ) :   1.2070 B(  0-N , 12-H ) :   0.9520 B(  0-N , 13-H ) :   0.9246 
B(  1-C ,  2-C ) :   1.3307 B(  1-C ,  3-C ) :   1.3399 B(  2-C ,  4-C ) :   1.3845 
B(  2-C ,  7-H ) :   0.9807 B(  3-C ,  5-C ) :   1.3883 B(  3-C ,  8-H ) :   0.9837 
B(  4-C ,  6-C ) :   1.3700 B(  4-C ,  9-H ) :   0.9810 B(  5-C ,  6-C ) :   1.3766 
B(  5-C , 10-H ) :   0.9785 B(  6-C , 11-H ) :   0.9882 B( 13-H , 14-O ) :   0.1115 
B( 14-O , 15-H ) :   0.9946 B( 14-O , 16-H ) :   0.9870 

-------
TIMINGS
-------

Total SCF time: 0 days 0 hours 0 min 4 sec 

Total time                  ....       4.307 sec
Sum of individual times     ....       4.190 sec  ( 97.3%)

SCF preparation             ....       0.617 sec  ( 14.3%)
Fock matrix formation       ....       3.155 sec  ( 73.3%)
  Startup                   ....       0.056 sec  (  1.8% of F)
  Split-RI-J                ....       0.254 sec  (  8.1% of F)
  Chain of spheres X        ....       1.809 sec  ( 57.3% of F)
  XC integration            ....       0.917 sec  ( 29.0% of F)
    XC Preparation          ....       0.000 sec  (  0.0% of XC)
    Basis function eval.    ....       0.173 sec  ( 18.9% of XC)
    Density eval.           ....       0.069 sec  (  7.6% of XC)
    XC-Functional eval.     ....       0.043 sec  (  4.7% of XC)
    XC-Potential eval.      ....       0.103 sec  ( 11.2% of XC)
Diagonalization             ....       0.000 sec  (  0.0%)
Density matrix formation    ....       0.114 sec  (  2.7%)
Total Energy calculation    ....       0.043 sec  (  1.0%)
Population analysis         ....       0.019 sec  (  0.4%)
Orbital Transformation      ....       0.023 sec  (  0.5%)
Orbital Orthonormalization  ....       0.000 sec  (  0.0%)
DIIS solution               ....       0.141 sec  (  3.3%)
SOSCF solution              ....       0.076 sec  (  1.8%)
Finished LeanSCF after   4.3 sec

Maximum memory used throughout the entire LEANSCF-calculation: 16.5 MB


-------------------------------------------------------------------------------
                          DFT DISPERSION CORRECTION                            
                                                                               
                              DFTD3 V3.1  Rev 1                                
                          USING Becke-Johnson damping                          
-------------------------------------------------------------------------------
The B3LYP functional is recognized
Active option DFTDOPT                   ...         4   

molecular C6(AA) [au] = 2812.606614 


            DFT-D V3
 parameters
 s6 scaling factor         :     1.0000 
 a1 scaling factor         :     0.3981 
 s8 scaling factor         :     1.9889 
 a2 scaling factor         :     4.4211 
 ad hoc parameters k1-k3   :    16.0000     1.3333    -4.0000 

 Edisp/kcal,au: -17.061457491053  -0.027189160286 
 E6   /kcal   :  -8.108975463 
 E8   /kcal   :  -8.952482028 
 % E8         :  52.471965144 

-------------------------   ----------------
Dispersion correction           -0.027189160
-------------------------   ----------------


-------------------------   --------------------
FINAL SINGLE POINT ENERGY      -363.576406476492
-------------------------   --------------------



           ************************************************************
           *        Program running with 20 parallel MPI-processes    *
           *              working on a common directory               *
           ************************************************************
------------------------------------------------------------------------------
                         ORCA SCF GRADIENT CALCULATION
------------------------------------------------------------------------------

Nuc. rep. gradient        (SHARK) ... done (  0.0 sec)
HCore & Overlap gradient  (SHARK) ... done (  0.0 sec)
Split-RIJ-J gradient      (SHARK) ... done (  0.1 sec)
COSX-gradient                     ... done (  1.1 sec)
XC gradient                       ... done (  0.2 sec)
Dispersion correction             ... done (  0.0 sec)

-------------------
DISPERSION GRADIENT
-------------------

   1   N   :   -0.000584190   -0.000102757    0.000349138
   2   C   :   -0.000285580   -0.000111070    0.000340749
   3   C   :    0.000104286    0.000510247    0.000139873
   4   C   :    0.000062761   -0.000561756    0.000229468
   5   C   :    0.000490411    0.000439269   -0.000033234
   6   C   :    0.000423404   -0.000437355    0.000061287
   7   C   :    0.000585039    0.000000922   -0.000055372
   8   H   :   -0.000054081    0.000372261    0.000055153
   9   H   :   -0.000063384   -0.000344830    0.000099859
  10   H   :    0.000182623    0.000284919   -0.000061888
  11   H   :    0.000184816   -0.000267935    0.000030346
  12   H   :    0.000315981    0.000008099   -0.000049229
  13   H   :   -0.000282643   -0.000145594    0.000135981
  14   H   :   -0.000320018    0.000031594    0.000036365
  15   O   :   -0.000364667    0.000155672   -0.000528090
  16   H   :   -0.000205966   -0.000003238   -0.000385820
  17   H   :   -0.000188791    0.000171553   -0.000364586

Difference to translation invariance:
           :   -0.0000000000    0.0000000000    0.0000000000

Difference to rotation invariance:
           :    0.0000000000    0.0000000000    0.0000000000

Norm of the Dispersion gradient    ...    0.0020385263
RMS gradient                       ...    0.0002854508
MAX gradient                       ...    0.0005850386

------------------
CARTESIAN GRADIENT
------------------

   1   N   :   -0.001604595    0.000648128   -0.000305980
   2   C   :    0.000105366    0.000896636   -0.000598535
   3   C   :   -0.000290958   -0.000206291    0.000082828
   4   C   :   -0.000946615   -0.000282677   -0.000365571
   5   C   :   -0.000031770    0.000106949   -0.000108160
   6   C   :    0.000458350    0.000180412   -0.000194123
   7   C   :   -0.000234800   -0.000220227    0.000107805
   8   H   :   -0.000076247   -0.000047897   -0.000000841
   9   H   :    0.000180898   -0.000039742    0.000027263
  10   H   :    0.000067262   -0.000042602    0.000012985
  11   H   :    0.000013548   -0.000017687    0.000000616
  12   H   :    0.000028258   -0.000014975    0.000015719
  13   H   :    0.000820165    0.000732812    0.000052977
  14   H   :    0.000437621   -0.001763576    0.000251406
  15   O   :    0.001944807   -0.000491127    0.001158172
  16   H   :    0.000107029    0.001013452    0.000769067
  17   H   :   -0.000978318   -0.000451588   -0.000905629

Difference to translation invariance:
           :   -0.0000000001    0.0000000001    0.0000000000

Difference to rotation invariance:
           :    0.0000616695   -0.0000683945    0.0002815301

Norm of the Cartesian gradient     ...    0.0044192786
RMS gradient                       ...    0.0006188228
MAX gradient                       ...    0.0019448073

-------
TIMINGS
-------

Total SCF gradient time     ....        1.480 sec

Densities                   ....       0.000 sec  (  0.0%)
One electron gradient       ....       0.013 sec  (  0.9%)
RI-J Coulomb gradient       ....       0.127 sec  (  8.6%)
COSX gradient               ....       1.057 sec  ( 71.4%)
XC gradient                 ....       0.236 sec  ( 16.0%)

Maximum memory used throughout the entire SCFGRAD-calculation: 29.2 MB
------------------------------------------------------------------------------
                         ORCA GEOMETRY RELAXATION STEP
------------------------------------------------------------------------------

Reading the OPT-File                    .... done
Getting information on internals        .... done
Copying old internal coords+grads       .... done
Making the new internal coordinates     .... (2022 redundants) done
Validating the new internal coordinates .... (2022 redundants) done
Calculating the B-matrix                .... done
Calculating the G,G- and P matrices     .... done
Transforming gradient to internals      .... done
Projecting the internal gradient        .... done
Number of atoms                         ....  17
Number of internal coordinates          .... 125
Current Energy                          ....  -363.576406476 Eh
Current gradient norm                   ....     0.004419279 Eh/bohr
Maximum allowed component of the step   ....  0.300
Current trust radius                    ....  0.300
Evaluating the initial hessian          ....  (Almloef) done
Projecting the Hessian                  .... done
Forming the augmented Hessian           .... done
Diagonalizing the augmented Hessian     .... done
Last element of RFO vector              ....  0.997901037
Lowest eigenvalues of augmented Hessian:
 -0.000088549  0.008338822  0.015511465  0.024449561  0.024641139
Length of the computed step             ....  0.064893610
The final length of the internal step   ....  0.064893610
Converting the step to Cartesian space:
 Initial RMS(Int)=    0.0058042609
Transforming coordinates:
 Iter   0:  RMS(Cart)=    0.0114190742 RMS(Int)=    0.7945867357
done
Storing new coordinates                 .... done

                                .--------------------.
          ----------------------|Geometry convergence|-------------------------
          Item                value                   Tolerance       Converged
          ---------------------------------------------------------------------
          RMS gradient        0.0003182465            0.0001000000      NO
          MAX gradient        0.0016650123            0.0003000000      NO
          RMS step            0.0058042609            0.0020000000      NO
          MAX step            0.0332601515            0.0040000000      NO
          ........................................................
          Max(Bonds)      0.0176      Max(Angles)    0.29
          Max(Dihed)        0.52      Max(Improp)    0.00
          ---------------------------------------------------------------------

The optimization has not yet converged - more geometry cycles are needed


    ---------------------------------------------------------------------------
                         Redundant Internal Coordinates
                            (Angstroem and degrees)

        Definition                    Value    dE/dq     Step     New-Value
    ----------------------------------------------------------------------------
     1. B(C   1,N   0)                1.3897 -0.000034  0.0005    1.3902   
     2. B(C   2,C   1)                1.4125 -0.000593  0.0007    1.4132   
     3. B(C   3,C   1)                1.4088 -0.000043  0.0001    1.4089   
     4. B(C   4,C   2)                1.3949  0.000003 -0.0000    1.3949   
     5. B(C   5,C   3)                1.3958  0.000322 -0.0002    1.3956   
     6. B(C   6,C   5)                1.3976 -0.000216  0.0002    1.3978   
     7. B(C   6,C   4)                1.3989  0.000061 -0.0001    1.3989   
     8. B(H   7,C   2)                1.0934 -0.000101  0.0008    1.0942   
     9. B(H   8,C   3)                1.0941 -0.000037  0.0001    1.0941   
    10. B(H   9,C   4)                1.0935 -0.000012  0.0000    1.0935   
    11. B(H  10,C   5)                1.0935  0.000023 -0.0000    1.0935   
    12. B(H  11,C   6)                1.0921  0.000025 -0.0000    1.0920   
    13. B(H  12,N   0)                1.0139 -0.000988  0.0012    1.0151   
    14. B(H  13,N   0)                1.0187 -0.001665  0.0026    1.0213   
    15. B(O  14,H  13)                2.1601 -0.000091  0.0131    2.1732   
    16. B(H  15,O  14)                0.9668 -0.000864  0.0013    0.9681   
    17. B(H  15,H  13)                2.3578 -0.000536  0.0140    2.3718   
    18. B(H  16,C   2)                2.4646 -0.000757  0.0176    2.4822   
    19. B(H  16,H  13)                2.4430  0.000167  0.0091    2.4521   
    20. B(H  16,H   7)                2.2481 -0.000032  0.0138    2.2620   
    21. B(H  16,O  14)                0.9681 -0.001497  0.0017    0.9698   
    22. A(C   1,N   0,H  13)          112.93 -0.000290    0.24    113.16   
    23. A(C   1,N   0,H  12)          114.15 -0.000408    0.03    114.18   
    24. A(H  12,N   0,H  13)          111.72  0.000310   -0.11    111.61   
    25. A(C   2,C   1,C   3)          118.00  0.000132   -0.04    117.96   
    26. A(N   0,C   1,C   2)          120.21  0.000453   -0.02    120.19   
    27. A(N   0,C   1,C   3)          121.77 -0.000583    0.06    121.83   
    28. A(C   4,C   2,H  16)          114.00 -0.000123    0.11    114.11   
    29. A(C   1,C   2,H   7)          118.94 -0.000213    0.04    118.98   
    30. A(C   1,C   2,H  16)           91.52 -0.000364    0.12     91.64   
    31. A(C   1,C   2,C   4)          120.74  0.000171    0.00    120.75   
    32. A(H   7,C   2,H  16)           65.72  0.000315   -0.10     65.62   
    33. A(C   4,C   2,H   7)          120.29  0.000046   -0.05    120.23   
    34. A(C   5,C   3,H   8)          119.88 -0.000093    0.01    119.90   
    35. A(C   1,C   3,H   8)          119.32  0.000266   -0.04    119.28   
    36. A(C   1,C   3,C   5)          120.79 -0.000173    0.03    120.82   
    37. A(C   6,C   4,H   9)          119.91  0.000002    0.01    119.92   
    38. A(C   2,C   4,C   6)          120.80 -0.000176    0.01    120.81   
    39. A(C   2,C   4,H   9)          119.28  0.000174   -0.02    119.26   
    40. A(C   3,C   5,C   6)          120.83 -0.000032    0.01    120.84   
    41. A(C   6,C   5,H  10)          119.97  0.000019   -0.00    119.96   
    42. A(C   3,C   5,H  10)          119.20  0.000013   -0.00    119.20   
    43. A(C   5,C   6,H  11)          120.59 -0.000066    0.01    120.60   
    44. A(C   4,C   6,H  11)          120.59 -0.000013    0.00    120.59   
    45. A(C   4,C   6,C   5)          118.82  0.000079   -0.02    118.80   
    46. A(C   2,H   7,H  16)           87.96 -0.000365    0.28     88.24   
    47. A(N   0,H  13,H  16)          118.55  0.000131    0.10    118.65   
    48. A(O  14,H  13,H  15)           24.21 -0.000159   -0.12     24.09   
    49. A(N   0,H  13,H  15)          118.03 -0.000018    0.23    118.26   
    50. A(N   0,H  13,O  14)          135.37 -0.000155    0.10    135.47   
    51. A(H  15,H  13,H  16)           36.51 -0.000440   -0.10     36.41   
    52. A(O  14,H  13,H  16)           23.25 -0.000389   -0.04     23.21   
    53. A(H  13,O  14,H  16)           95.01  0.000595   -0.26     94.76   
    54. A(H  13,O  14,H  15)           89.43 -0.000063    0.10     89.53   
    55. A(H  15,O  14,H  16)          102.21 -0.000117    0.07    102.27   
    56. A(H  13,H  15,O  14)           66.36  0.000222    0.02     66.38   
    57. A(H   7,H  16,O  14)          122.35 -0.000203    0.09    122.44   
    58. A(C   2,H  16,H  13)           64.79 -0.000043   -0.28     64.52   
    59. A(C   2,H  16,H   7)           26.32  0.000050   -0.18     26.14   
    60. A(C   2,H  16,O  14)          126.13 -0.000249    0.02    126.16   
    61. A(H   7,H  16,H  13)           64.77  0.000000   -0.23     64.54   
    62. A(H  13,H  16,O  14)           61.74 -0.000206    0.29     62.03   
    63. D(C   2,C   1,N   0,H  13)     42.35  0.000331   -0.15     42.20   
    64. D(C   3,C   1,N   0,H  13)   -139.26  0.000409   -0.52   -139.78   
    65. D(C   2,C   1,N   0,H  12)    171.40  0.000134   -0.06    171.34   
    66. D(C   3,C   1,N   0,H  12)    -10.22  0.000212   -0.43    -10.65   
[...]
      pz      :     0.005937  p :     0.022873
      px      :     0.005208
      py      :     0.011729

  9 H s       :     0.998372  s :     0.998372
      pz      :     0.005255  p :     0.022684
      px      :     0.005567
      py      :     0.011863

 10 H s       :     0.998429  s :     0.998429
      pz      :     0.004766  p :     0.022710
      px      :     0.006847
      py      :     0.011097

 11 H s       :     1.003233  s :     1.003233
      pz      :     0.005231  p :     0.022940
      px      :     0.014364
      py      :     0.003344

 12 H s       :     0.858996  s :     0.858996
      pz      :     0.013060  p :     0.045005
      px      :     0.010522
      py      :     0.021423

 13 H s       :     0.857578  s :     0.857578
      pz      :     0.019204  p :     0.047448
      px      :     0.012050
      py      :     0.016194

 14 O s       :     3.684264  s :     3.684264
      pz      :     1.804065  p :     4.574609
      px      :     1.416665
      py      :     1.353878
      dz2     :     0.001471  d :     0.010638
      dxz     :     0.000922
      dyz     :     0.001396
      dx2y2   :     0.005349
      dxy     :     0.001500

 15 H s       :     0.768243  s :     0.768243
      pz      :     0.021360  p :     0.070218
      px      :     0.015956
      py      :     0.032902

 16 H s       :     0.771208  s :     0.771208
      pz      :     0.019692  p :     0.070872
      px      :     0.032997
      py      :     0.018182



                     *******************************
                     * LOEWDIN POPULATION ANALYSIS *
                     *******************************

----------------------
LOEWDIN ATOMIC CHARGES
----------------------
   0 N :   -0.037290
   1 C :    0.020328
   2 C :   -0.083278
   3 C :   -0.072420
   4 C :   -0.018721
   5 C :   -0.014926
   6 C :   -0.063979
   7 H :    0.021137
   8 H :    0.019339
   9 H :    0.025624
  10 H :    0.025842
  11 H :    0.022733
  12 H :    0.065359
  13 H :    0.051043
  14 O :   -0.116536
  15 H :    0.081934
  16 H :    0.073811

-------------------------------
LOEWDIN REDUCED ORBITAL CHARGES
-------------------------------
  0 N s       :     3.065324  s :     3.065324
      pz      :     1.558007  p :     3.928114
      px      :     1.144913
      py      :     1.225194
      dz2     :     0.004733  d :     0.043852
      dxz     :     0.009189
      dyz     :     0.003400
      dx2y2   :     0.014381
      dxy     :     0.012149

  1 C s       :     2.840573  s :     2.840573
      pz      :     0.942170  p :     2.994029
      px      :     0.967603
      py      :     1.084256
      dz2     :     0.010966  d :     0.145070
      dxz     :     0.030629
      dyz     :     0.014100
      dx2y2   :     0.046518
      dxy     :     0.042857

  2 C s       :     2.863314  s :     2.863314
      pz      :     1.055320  p :     3.133870
      px      :     1.052990
      py      :     1.025560
      dz2     :     0.006797  d :     0.086094
      dxz     :     0.011237
      dyz     :     0.007125
      dx2y2   :     0.027029
      dxy     :     0.033906

  3 C s       :     2.861331  s :     2.861331
      pz      :     1.047206  p :     3.124525
      px      :     1.055007
      py      :     1.022312
      dz2     :     0.006229  d :     0.086564
      dxz     :     0.012300
      dyz     :     0.006514
      dx2y2   :     0.027978
      dxy     :     0.033543

  4 C s       :     2.862326  s :     2.862326
      pz      :     0.963467  p :     3.063738
      px      :     1.060449
      py      :     1.039822
      dz2     :     0.005965  d :     0.092656
      dxz     :     0.015917
      dyz     :     0.007969
      dx2y2   :     0.031328
      dxy     :     0.031478

  5 C s       :     2.862149  s :     2.862149
      pz      :     0.962755  p :     3.060338
      px      :     1.056456
      py      :     1.041127
      dz2     :     0.007602  d :     0.092439
      dxz     :     0.014633
      dyz     :     0.008276
      dx2y2   :     0.029335
      dxy     :     0.032593

  6 C s       :     2.858743  s :     2.858743
      pz      :     1.025255  p :     3.116097
      px      :     1.031846
      py      :     1.058996
      dz2     :     0.007068  d :     0.089140
      dxz     :     0.006072
      dyz     :     0.013632
      dx2y2   :     0.033086
      dxy     :     0.029282

  7 H s       :     0.909737  s :     0.909737
      pz      :     0.016874  p :     0.069126
      px      :     0.019550
      py      :     0.032702

  8 H s       :     0.912994  s :     0.912994
      pz      :     0.018088  p :     0.067667
      px      :     0.015813
      py      :     0.033766

  9 H s       :     0.908480  s :     0.908480
      pz      :     0.015593  p :     0.065896
      px      :     0.016485
      py      :     0.033819

 10 H s       :     0.908350  s :     0.908350
      pz      :     0.014136  p :     0.065808
      px      :     0.019858
      py      :     0.031814

 11 H s       :     0.909869  s :     0.909869
      pz      :     0.015941  p :     0.067398
      px      :     0.040354
      py      :     0.011103

 12 H s       :     0.814131  s :     0.814131
      pz      :     0.036888  p :     0.120510
      px      :     0.025212
      py      :     0.058410

 13 H s       :     0.816479  s :     0.816479
      pz      :     0.059279  p :     0.132478
      px      :     0.031194
      py      :     0.042005

 14 O s       :     3.434203  s :     3.434203
      pz      :     1.766178  p :     4.662859
      px      :     1.485235
      py      :     1.411446
      dz2     :     0.002847  d :     0.019473
      dxz     :     0.000638
      dyz     :     0.003025
      dx2y2   :     0.010593
      dxy     :     0.002369

 15 H s       :     0.743189  s :     0.743189
      pz      :     0.057400  p :     0.174877
      px      :     0.035438
      py      :     0.082038

 16 H s       :     0.747266  s :     0.747266
      pz      :     0.050301  p :     0.178922
      px      :     0.091014
      py      :     0.037607



                      *****************************
                      * MAYER POPULATION ANALYSIS *
                      *****************************

  NA   - Mulliken gross atomic population
  ZA   - Total nuclear charge
  QA   - Mulliken gross atomic charge
  VA   - Mayer's total valence
  BVA  - Mayer's bonded valence
  FA   - Mayer's free valence

  ATOM       NA         ZA         QA         VA         BVA        FA
  0 N      7.0803     7.0000    -0.0803     3.1579     3.1579    -0.0000
  1 C      5.9627     6.0000     0.0373     4.0754     4.0754    -0.0000
  2 C      6.0731     6.0000    -0.0731     3.8176     3.8176    -0.0000
  3 C      6.0261     6.0000    -0.0261     3.8056     3.8056    -0.0000
  4 C      5.9825     6.0000     0.0175     3.8533     3.8533    -0.0000
  5 C      5.9830     6.0000     0.0170     3.8557     3.8557    -0.0000
  6 C      5.9895     6.0000     0.0105     3.8133     3.8133     0.0000
  7 H      1.0271     1.0000    -0.0271     0.9915     0.9915    -0.0000
  8 H      1.0482     1.0000    -0.0482     0.9851     0.9851    -0.0000
  9 H      1.0211     1.0000    -0.0211     0.9768     0.9768    -0.0000
 10 H      1.0211     1.0000    -0.0211     0.9764     0.9764     0.0000
 11 H      1.0262     1.0000    -0.0262     0.9777     0.9777     0.0000
 12 H      0.9040     1.0000     0.0960     1.0032     1.0032    -0.0000
 13 H      0.9050     1.0000     0.0950     1.0864     1.0864    -0.0000
 14 O      8.2695     8.0000    -0.2695     2.1279     2.1279    -0.0000
 15 H      0.8385     1.0000     0.1615     1.0106     1.0106    -0.0000
 16 H      0.8421     1.0000     0.1579     1.0387     1.0387     0.0000

  Mayer bond orders larger than 0.100000
B(  0-N ,  1-C ) :   1.2183 B(  0-N , 12-H ) :   0.9511 B(  0-N , 13-H ) :   0.9196 
B(  1-C ,  2-C ) :   1.3240 B(  1-C ,  3-C ) :   1.3355 B(  2-C ,  4-C ) :   1.3899 
B(  2-C ,  7-H ) :   0.9769 B(  3-C ,  5-C ) :   1.3947 B(  3-C ,  8-H ) :   0.9840 
B(  4-C ,  6-C ) :   1.3740 B(  4-C ,  9-H ) :   0.9800 B(  5-C ,  6-C ) :   1.3724 
B(  5-C , 10-H ) :   0.9786 B(  6-C , 11-H ) :   0.9881 B( 13-H , 14-O ) :   0.1240 
B( 14-O , 15-H ) :   0.9944 B( 14-O , 16-H ) :   0.9857 

-------
TIMINGS
-------

Total SCF time: 0 days 0 hours 0 min 2 sec 

Total time                  ....       2.265 sec
Sum of individual times     ....       2.178 sec  ( 96.2%)

SCF preparation             ....       0.608 sec  ( 26.9%)
Fock matrix formation       ....       1.380 sec  ( 60.9%)
  Startup                   ....       0.026 sec  (  1.9% of F)
  Split-RI-J                ....       0.092 sec  (  6.7% of F)
  Chain of spheres X        ....       0.897 sec  ( 65.0% of F)
  XC integration            ....       0.323 sec  ( 23.4% of F)
    Basis function eval.    ....       0.057 sec  ( 17.8% of XC)
    Density eval.           ....       0.026 sec  (  8.1% of XC)
    XC-Functional eval.     ....       0.014 sec  (  4.4% of XC)
    XC-Potential eval.      ....       0.038 sec  ( 11.9% of XC)
Diagonalization             ....       0.000 sec  (  0.0%)
Density matrix formation    ....       0.040 sec  (  1.8%)
Total Energy calculation    ....       0.018 sec  (  0.8%)
Population analysis         ....       0.057 sec  (  2.5%)
Orbital Transformation      ....       0.011 sec  (  0.5%)
Orbital Orthonormalization  ....       0.000 sec  (  0.0%)
DIIS solution               ....       0.019 sec  (  0.8%)
SOSCF solution              ....       0.046 sec  (  2.0%)
Finished LeanSCF after   2.3 sec

Maximum memory used throughout the entire LEANSCF-calculation: 18.4 MB


-------------------------------------------------------------------------------
                          DFT DISPERSION CORRECTION                            
                                                                               
                              DFTD3 V3.1  Rev 1                                
                          USING Becke-Johnson damping                          
-------------------------------------------------------------------------------
The B3LYP functional is recognized
Active option DFTDOPT                   ...         4   

molecular C6(AA) [au] = 2812.725387 


            DFT-D V3
 parameters
 s6 scaling factor         :     1.0000 
 a1 scaling factor         :     0.3981 
 s8 scaling factor         :     1.9889 
 a2 scaling factor         :     4.4211 
 ad hoc parameters k1-k3   :    16.0000     1.3333    -4.0000 

 Edisp/kcal,au: -16.828565177666  -0.026818022800 
 E6   /kcal   :  -7.997401121 
 E8   /kcal   :  -8.831164056 
 % E8         :  52.477225260 

-------------------------   ----------------
Dispersion correction           -0.026818023
-------------------------   ----------------


-------------------------   --------------------
FINAL SINGLE POINT ENERGY      -363.576755300881
-------------------------   --------------------

                                *** OPTIMIZATION RUN DONE ***



           ************************************************************
           *        Program running with 20 parallel MPI-processes    *
           *              working on a common directory               *
           ************************************************************

------------------------------------------------------------------------------
                              ORCA PROPERTY CALCULATIONS
------------------------------------------------------------------------------

GBWName                                 ... aninline_water_2.gbw
Number of atoms                         ...     17
Number of basis functions               ...    157
Max core memory                         ...   3000 MB

Electric properties:
Dipole moment                           ... YES
Quadrupole moment                       ...  NO
Static polarizability (Dipole/Dipole)   ...  NO
Static polarizability (Dipole/Quad.)    ...  NO
Static polarizability (Quad./Quad.)     ...  NO
Static polarizability (Velocity)        ...  NO

Atomic electric properties:
Dipole moment                           ...  NO
Quadrupole moment                       ...  NO
Static polarizability                   ...  NO

Choice of electric origin               ... Center of mass
Position of electric origin             ...    -0.879384     6.651307    -0.415210

General magnetic properties:
Magnetizability                         ...  NO

EPR properties:
g-Tensor (aka g-matrix)                 ...  NO
Zero-Field splitting spin-orbit         ...  NO
Zero-field splitting spin-spin          ...  NO
Hyperfine couplings                     ...  NO (   0 nuclei)
Quadrupole couplings                    ...  NO (   0 nuclei)
Contact density                         ...  NO (   0 nuclei)

NMR properties:
Chemical shifts                         ...  NO (   0 nuclei)
Spin-rotation constants                 ...  NO (   0 nuclei)
Spin-spin couplings                     ...  NO (   0 nuclei,    0 pairs)

Choice of magnetic origin               ... GIAO
Position of magnetic origin             ...     0.000000     0.000000     0.000000

Properties with geometric perturbations:
SCF Hessian                             ...  NO
IR spectrum                             ...  NO
VCD spectrum                            ...  NO
X-ray spectroscopy properties:
SCF XES/XAS/RIXS spectra                ...  NO


-------------
DIPOLE MOMENT
-------------

Method             : SCF
Type of density    : Electron Density
Multiplicity       :   1
Irrep              :   0
Energy             :  -363.5499372780812450 Eh
Relativity type    : 
Basis              : AO
                                X                 Y                 Z
Electronic contribution:      1.275332359      -0.430040610       1.349708222
Nuclear contribution   :     -1.301392058      -0.122277823      -1.834212171
                        -----------------------------------------
Total Dipole Moment    :     -0.026059699      -0.552318433      -0.484503949
                        -----------------------------------------
Magnitude (a.u.)       :      0.735172658
Magnitude (Debye)      :      1.868660392



--------------------
Rotational spectrum 
--------------------
 
Rotational constants in cm-1:             0.106979             0.044305             0.035649 
Rotational constants in MHz :          3207.138424          1328.220463          1068.736476 

Dipole components along the rotational axes: 
x,y,z [a.u.] :    -0.033743    -0.178500     0.712375 
x,y,z [Debye]:    -0.085767    -0.453710     1.810713 

 

Dipole moment calculation done in   0.0 sec 

Maximum memory used throughout the entire PROP-calculation: 9.5 MB

--------------------------------
SUGGESTED CITATIONS FOR THIS RUN
--------------------------------

Below you find a list of papers that are relevant to this ORCA run
We neither can nor want to force you to cite these papers, but we appreciate if you do
You receive ORCA, which is the product of decades of hard work by many enthusiastic individuals, for free
The only thing we kindly ask in return is that you cite our papers,
We deeply appreciate it, if you show your appreciation for ORCA by not just citing the generic ORCA reference.

Please note that relegating all ORCA citations to the supporting information does *not* help us.
SI sections are not indexed - citations you put there will not count into any citation statistics
But we need these citations in order to attract the funding resources that allow us to do what we are doing

Therefore, if you are a happy ORCA user, please consider citing a few of the papers listed below in the main body of your paper

In addition to the list printed below, the program has created the file aninline_water_2.bibtex that contains the list in bibtex format
You can import this file easily into all common literature databanks and citation aid programs


List of essential papers. We consider these as the minimum necessary citations

  1. Neese,F.
     Software update: the ORCA program system, version 5.0
     WIRES Comput. Molec. Sci., 2022 12(1)e1606
     doi.org/10.1002/wcms.1606

List of papers to cite with high priority. The work reported in these papers was absolutely
necessary for this run to complete.
Our perspective: the developers of density functionals and basis sets usually get cited in chemistry papers
Good! But without the algorithms to do something with them, the functionals or basis sets would not do anything.
Hence, in our opinion, the algorithm design and method developments papers are equally worthy of getting cited

  1. Neese,F.
     An improvement of the resolution of the identity approximation for the formation of the Coulomb matrix
     J. Comp. Chem., 2003 24(14)1740-1747
     doi.org/10.1002/jcc.10318
  2. Neese,F.; Wennmohs,F.; Hansen,A.; Becker,U.
     Efficient, approximate and parallel Hartree-Fock and hybrid DFT calculations. A 'chain-of-spheres' algorithm for the Hartree-Fock exchange
     Chem. Phys., 2009 356(1-3)98-109
     doi.org/10.1016/j.chemphys.2008.10.036
  3. Helmich-Paris,B.; de Souza,B.; Neese,F.; Izsák,R.
     An improved chain of spheres for exchange algorithm
     J. Chem. Phys., 2021 155 104109
     doi.org/doi: 10.1063/5.0058766.
  4. Neese,F.
     The SHARK Integral Generation and Digestion System
     J. Comp. Chem., 2022  1-16
     doi.org/10.1002/jcc.26942
  5. Grimme,S.; Antony,J.; Ehrlich,S.; Krieg,H.
     A consistent and accurate ab initio parametrization of density functional dispersion correction (DFT-D) for the 94 elements H-Pu
     J. Chem. Phys., 2010 132 154104
     doi.org/10.1063/1.3382344
  6. Grimme,S.; Ehrlich,S.; Goerigk,L.
     Effect of the damping function in dispersion corrected density functional theory
     J. Comput. Chem., 2011 32(7)1456-1465
     doi.org/10.1002/jcc.21759

List of suggested additional citations. These are papers that are important in the 'surrounding' of 
of this run, or papers that preceded the highly important papers. If you like your results we are grateful for a citation.

  1. Izsak,R.; Neese,F.
     An overlap fitted chain of spheres exchange method
     J. Chem. Phys., 2011 135 144105
     doi.org/10.1063/1.3646921
  2. Izsak,R.; Hansen,A.; Neese,F.
     The resolution of identity and chain of spheres approximations for the LPNO-CCSD singles Fock term
     Molec. Phys., 2012 110 2413-2417
     doi.org/10.1080/00268976.2012.687466
  3. Neese,F.
     The ORCA program system
     WIRES Comput. Molec. Sci., 2012 2(1)73-78
     doi.org/10.1002/wcms.81
  4. Izsak,R.; Neese,F.; Klopper,W.
     Robust fitting techniques in the chain of spheres approximation to the Fock exchange: The role of the complementary space
     J. Chem. Phys., 2013 139 
     doi.org/10.1063/1.4819264
  5. Neese,F.
     Software update: the ORCA program system, version 4.0
     WIRES Comput. Molec. Sci., 2018 8(1)1-6
     doi.org/10.1002/wcms.1327
  6. Neese,F.; Wennmohs,F.; Becker,U.; Riplinger,C.
     The ORCA quantum chemistry program package
     J. Chem. Phys., 2020 152 Art. No. L224108
     doi.org/10.1063/5.0004608

List of optional additional citations

  1. Neese,F.
     Approximate second-order SCF convergence for spin unrestricted wavefunctions
     Chem. Phys. Lett., 2000 325(1-3)93-98
     doi.org/10.1016/s0009-2614(00)00662-x

Timings for individual modules:

Sum of individual times          ...      142.970 sec (=   2.383 min)
Startup calculation              ...       27.208 sec (=   0.453 min)  19.0 %
SCF iterations                   ...       74.367 sec (=   1.239 min)  52.0 %
Property calculations            ...        0.661 sec (=   0.011 min)   0.5 %
SCF Gradient evaluation          ...       40.518 sec (=   0.675 min)  28.3 %
Geometry relaxation              ...        0.217 sec (=   0.004 min)   0.2 %
                             ****ORCA TERMINATED NORMALLY****
TOTAL RUN TIME: 0 days 0 hours 2 minutes 43 seconds 838 msec
