
                                 *****************
                                 * O   R   C   A *
                                 *****************

                                            #,                                       
                                            ###                                      
                                            ####                                     
                                            #####                                    
                                            ######                                   
                                           ########,                                 
                                     ,,################,,,,,                         
                               ,,#################################,,                 
                          ,,##########################################,,             
                       ,#########################################, ''#####,          
                    ,#############################################,,   '####,        
                  ,##################################################,,,,####,       
                ,###########''''           ''''###############################       
              ,#####''   ,,,,##########,,,,          '''####'''          '####       
            ,##' ,,,,###########################,,,                        '##       
           ' ,,###''''                  '''############,,,                           
         ,,##''                                '''############,,,,        ,,,,,,###''
      ,#''                                            '''#######################'''  
     '                                                          ''''####''''         
             ,#######,   #######,   ,#######,      ##                                
            ,#'     '#,  ##    ##  ,#'     '#,    #''#        ,####,   ,####,        
            ##       ##  ##   ,#'  ##            #'  '#       #'       #'  '#        
            ##       ##  #######   ##           ,######,      #####,   #    #        
            '#,     ,#'  ##    ##  '#,     ,#' ,#      #,     #,   #   #,  ,#        
             '#######'   ##     ##  '#######'  #'      '#     '####' # '####'        



                #########################################################
                #                        -***-                          #
                #          Department of theory and spectroscopy        #
                #                                                       #
                #                      Frank Neese                      #
                #                                                       #
                #     Directorship, Architecture, Infrastructure        #
                #                    SHARK, DRIVERS                     #
                #        Core code/Algorithms in most modules           #
                #                                                       #
                #        Max Planck Institute fuer Kohlenforschung      #
                #                Kaiser Wilhelm Platz 1                 #
                #                 D-45470 Muelheim/Ruhr                 #
                #                      Germany                          #
                #                                                       #
                #                  All rights reserved                  #
                #                        -***-                          #
                #########################################################


                         Program Version 6.0.1  -  RELEASE   -


 With contributions from (in alphabetic order):
[Max-Planck-Institut fuer Kohlenforschung]                               
  Daniel Aravena         : Magnetic Suceptibility                        
  Michael Atanasov       : Ab Initio Ligand Field Theory (pilot matlab implementation)
  Alexander A. Auer      : GIAO ZORA, VPT2 properties, NMR spectrum      
  Ute Becker             : All parallelization in ORCA, NUMFREQ, NUMCALC 
  Giovanni Bistoni       : ED, misc. LED, open-shell LED, HFLD           
  Martin Brehm           : Molecular dynamics                            
  Dmytro Bykov           : pre 5.0 version of the SCF Hessian            
  Marcos Casanova-Páez   : Triplet and SCS-CIS(D). UHF-(DLPNO)-IP/EA/STEOM-CCSD. UHF-CVS-IP/STEOM-CCSD   
  Vijay G. Chilkuri      : MRCI spin determinant printing, contributions to CSF-ICE 
  Pauline Colinet        : FMM embedding                                 
  Dipayan Datta          : RHF DLPNO-CCSD density                        
  Achintya Kumar Dutta   : EOM-CC, STEOM-CC                              
  Nicolas Foglia         : Exact transition moments, OPA infrastructure, MCD improvements    
  Dmitry Ganyushin       : Spin-Orbit,Spin-Spin,Magnetic field MRCI      
  Miquel Garcia-Rates    : C-PCM and meta-GGA Hessian, CCSD/C-PCM, Gaussian charge scheme 
  Tiago L. C. Gouveia    : GS-ROHF, GS-ROCIS                             
  Yang Guo               : DLPNO-NEVPT2, F12-NEVPT2, CIM, IAO-localization        
  Andreas Hansen         : Spin unrestricted coupled pair/coupled cluster methods 
  Ingolf Harden          : AUTO-CI MPn and infrastructure                
  Benjamin Helmich-Paris : MC-RPA, TRAH-(SCF,CASSCF), AVAS, COSX integrals, SCF dyn. polar. 
  Lee Huntington         : MR-EOM, pCC                                   
  Robert Izsak           : Overlap fitted RIJCOSX, COSX-SCS-MP3, EOM     
  Riya Kayal             : Wick's Theorem for AUTO-CI, AUTO-CI UHF-CCSDT 
  Emily Kempfer          : AUTO-CI, RHF CISDT and CCSDT                  
  Christian Kollmar      : KDIIS, OOCD, Brueckner-CCSD(T), CCSD density, CASPT2, CASPT2-K, improved NEVPT2 
  Axel Koslowski         : Symmetry handling                             
  Simone Kossmann        : meta-GGA functionals, TD-DFT gradient, OOMP2, (MP2 Hessian; deprecated post 5.0) 
  Lucas Lang             : DCDCAS                                        
  Marvin Lechner         : AUTO-CI (C++ implementation), FIC-MRCC        
  Spencer Leger          : CASSCF response                               
  Dagmar Lenk            : GEPOL surface, SMD, ORCA-2-JSON               
  Dimitrios Liakos       : Extrapolation schemes; Compound Job, initial MDCI parallelization 
  Dimitrios Manganas     : Further ROCIS development; embedding schemes. LFT, Crystal Embedding 
  Dimitrios Pantazis     : SARC Basis sets                               
  Anastasios Papadopoulos: AUTO-CI, single reference methods and gradients 
  Taras Petrenko         : pre 6.0 DFT Hessian and TD-DFT gradient, (ASA, deprecated), ECA, 1-Electron XAS/XES, NRVS 
  Peter Pinski           : DLPNO-MP2, DLPNO-MP2 Gradient                 
  Christoph Reimann      : Effective Core Potentials                     
  Marius Retegan         : Local ZFS, SOC                                
  Christoph Riplinger    : Optimizer, TS searches, QM/MM, DLPNO-CCSD(T), (RO)-DLPNO pert. Triples 
  Michael Roemelt        : Original ROCIS implementation                 
  Masaaki Saitow         : Open-shell DLPNO-CCSD energy and density      
  Barbara Sandhoefer     : DKH picture change effects                    
  Kantharuban Sivalingam : CASSCF convergence/infrastructure, NEVPT2 and variants, FIC-MRCI 
  Bernardo de Souza      : ESD, SOC TD-DFT                               
  Georgi L. Stoychev     : AutoAux, RI-MP2 NMR, DLPNO-MP2 response, X2C  
  Van Anh Tran           : RI-MP2 g-tensors                              
  Willem Van den Heuvel  : Paramagnetic NMR                              
  Zikuan Wang            : NOTCH, Electric field optimization            
  Frank Wennmohs         : Technical directorship and infrastructure     
  Hang Xu                : AUTO-CI-Response properties                   
                                                                         
[FACCTs GmbH]                                                            
  Markus Bursch, Miquel Garcia-Rates, Christoph Riplinger, Bernardo de Souza, Georgi L. Stoychev 
                                                                 
  APM, Basis sets (HGBS, AHGBS, def-TZVP (Ac-Lr), def2-XVPD (La-Lu)), CI-OPT, improved COSX, DLPNO-Multilevel,           
  DOCKER, DRACO, updates on ESD, GOAT, IRC, LR-CPCM, MBIS, meta-GGA TD-DFT gradient, ML-optimized integration grids, 
  MM, NACMEs, nearIR, NEB, NEB-TS, NL-DFT gradient (VV10), 2- and 3-layer-ONIOM, interface openCOSMO-RS, QMMM,   
  Crystal-QMMM, SF, symmetry and pop. for TD-DFT, r2SCAN hybrids, SOLVATOR                                   
                                                                         
[Other institutions]                                                     
  V. Asgeirsson          : NEB                                           
  Christoph Bannwarth    : sTDA-DFT, sTD-DFT, PBEh-3c, B97-3c, D3        
  Sebastian Ehlert       : rSCAN, r2SCAN, r2SCAN-3c, D4, dhf basis sets  
  Marvin Friede          : D4 for Fr, Ra, Ac-Lr                          
  Lars Goerigk           : TD-DFT with DH, B97 family of functionals     
  Stefan Grimme          : VdW corrections, initial TS optimization, DFT functionals, gCP, sTDA/sTD-DF 
  Waldemar Hujo          : DFT-NL                                        
  H. Jonsson             : NEB                                           
  Holger Kruse           : gCP                                           
  Marcel Mueller         : wB97X-3c, vDZP basis set                      
  Hagen Neugebauer       : wr2SCAN                                       
  Tobias Risthaus        : range-separated hybrid DFT                    
  Lukas Wittmann         : regularized MP2, r2SCAN double-hybrids, wr2SCAN        
                                                                         
We gratefully acknowledge several colleagues who have allowed us to      
interface, adapt or use parts of their codes:                            
  Ed Valeev, F. Pavosevic, A. Kumar             : LibInt (2-el integral package), F12 methods 
  Garnet Chan, S. Sharma, J. Yang, R. Olivares  : DMRG                   
  Ulf Ekstrom                                   : XCFun DFT Library      
  Mihaly Kallay                                 : mrcc  (arbitrary order and MRCC methods)
  Frank Weinhold                                : gennbo (NPA and NBO analysis)           
  Simon Mueller                                 : openCOSMO-RS                            
  Christopher J. Cramer and Donald G. Truhlar   : smd solvation model                     
  S Lehtola, MJT Oliveira, MAL Marques          : LibXC Library                           
  Liviu Ungur et al                             : ANISO software                          


 Your calculation uses the libint2 library for the computation of 2-el integrals
 For citations please refer to: http://libint.valeyev.net

 Your ORCA version has been built with support for libXC version: 6.2.2
 For citations please refer to: https://libxc.gitlab.io

 This ORCA versions uses:
   CBLAS   interface :  Fast vector & matrix operations
   LAPACKE interface :  Fast linear algebra routines
   SCALAPACK package :  Parallel linear algebra routines
   Shared memory     :  Shared parallel matrices
   BLAS/LAPACK       :  OpenBLAS 0.3.27  USE64BITINT DYNAMIC_ARCH NO_AFFINITY SkylakeX SINGLE_THREADED
        Core in use  :  SkylakeX
   Copyright (c) 2011-2014, The OpenBLAS Project


NOTE: MaxCore=4000 MB was set to SCF,MP2,MDCI,CIPSI,MRCI and CIS
      => If you want to overwrite this, your respective input block should be placed after the MaxCore statement
Your calculation utilizes the atom-pairwise dispersion correction
with the Becke-Johnson damping scheme (D3BJ)


Warning: RI is on but no J-basis has been assigned. Assigning Def2/J (nothing to worry about!)
================================================================================

----- Orbital basis set information -----
Your calculation utilizes the basis: def2-SVP
   F. Weigend and R. Ahlrichs, Phys. Chem. Chem. Phys. 7, 3297 (2005).

----- AuxJ basis set information -----
Your calculation utilizes the auxiliary basis: def2/J
   F. Weigend, Phys. Chem. Chem. Phys. 8, 1057 (2006).

================================================================================
                                        WARNINGS
                       Please study these warnings very carefully!
================================================================================


WARNING: Geometry Optimization
  ===> : Switching off AutoStart
         For restart on a previous wavefunction, please use MOREAD

================================================================================
                                       INPUT FILE
================================================================================
NAME = aniline_water_2_OPT.inp
|  1> ! B3LYP def2-SVP OPT TightSCF D3BJ
|  2> 
|  3> 
|  4> %maxcore 4000
|  5> 
|  6> %pal
|  7> nprocs 28
|  8> end
|  9> 
| 10> * xyz 0 1
| 11>   N          -2.52084091023975      0.19779112276586      0.02118450130525
| 12>   C          -1.12396363333801      0.14972535217109      0.02043920716364
| 13>   C          -0.34875011485849      1.31141793688940     -0.14573336946439
| 14>   C          -0.47317840587718     -1.07028692010055      0.26985125803315
| 15>   C           1.04281334266286      1.24999815394123     -0.06673798502378
| 16>   C           0.91888574892368     -1.12227840775256      0.34167227360172
| 17>   C           1.68806975307439      0.03362853696211      0.17464781269180
| 18>   H          -0.84550990406733      2.26751684977242     -0.33502880743775
| 19>   H          -1.06849007205679     -1.97283101242976      0.42976426659583
| 20>   H           1.62831204017076      2.16343228549988     -0.19951986122304
| 21>   H           1.40808626639026     -2.08051741999009      0.53407557526183
| 22>   H           2.77746215790859     -0.01315905868877      0.23343705271735
| 23>   H          -2.96786682393273     -0.63570714011431     -0.36650985713995
| 24>   H          -2.91059578300807      1.05220445746963     -0.37384086086954
| 25>   O          -2.30620436951312     -0.55868809567126      2.88197302719988
| 26>   H          -1.34281019978077     -0.54641399859569      2.80896787707133
| 27>   H          -2.58440876775828     -0.23363580022861      2.00739881971663                
| 28> *         
| 29>           
| 30> 
| 31>                          ****END OF INPUT****
================================================================================

                       *****************************
                       * Geometry Optimization Run *
                       *****************************

Geometry optimization settings:
Update method            Update   .... BFGS
Choice of coordinates    CoordSys .... (2022) Redundant Internals
Initial Hessian          InHess   .... Almloef's Model
Max. no of cycles        MaxIter  .... 51

Convergence Tolerances:
Energy Change            TolE     ....  5.0000e-06 Eh
Max. Gradient            TolMAXG  ....  3.0000e-04 Eh/bohr
RMS Gradient             TolRMSG  ....  1.0000e-04 Eh/bohr
Max. Displacement        TolMAXD  ....  4.0000e-03 bohr
RMS Displacement         TolRMSD  ....  2.0000e-03 bohr
Strict Convergence                .... False

------------------------------------------------------------------------------
                        ORCA OPTIMIZATION COORDINATE SETUP
------------------------------------------------------------------------------

The optimization will be done in redundant internal coordinates (2022)
Making redundant internal coordinates   ...  (2022 redundants) done
Evaluating the initial hessian          ...  (Almloef) done
Evaluating the coordinates              ...  done
Calculating the B-matrix                .... done
Calculating the G-matrix                .... done
Diagonalizing the G-matrix              .... done
The first mode is                       ....   60
The number of degrees of freedom        ....   45

    -----------------------------------------------------------------
                    Redundant Internal Coordinates


    -----------------------------------------------------------------
         Definition                    Initial Value    Approx d2E/dq
    -----------------------------------------------------------------
      1. B(C   1,N   0)                  1.3977         0.543981   
      2. B(C   2,C   1)                  1.4064         0.588159   
      3. B(C   3,C   1)                  1.4050         0.591196   
      4. B(C   4,C   2)                  1.3952         0.613072   
      5. B(C   5,C   3)                  1.3949         0.613684   
      6. B(C   6,C   5)                  1.3984         0.605700   
      7. B(C   6,C   4)                  1.3979         0.606882   
      8. B(H   7,C   2)                  1.0940         0.354911   
      9. B(H   8,C   3)                  1.0930         0.356210   
     10. B(H   9,C   4)                  1.0931         0.356062   
     11. B(H  10,C   5)                  1.0930         0.356208   
     12. B(H  11,C   6)                  1.0920         0.357490   
     13. B(H  12,N   0)                  1.0222         0.413769   
     14. B(H  13,N   0)                  1.0188         0.418926   
     15. B(H  15,O  14)                  0.9662         0.508183   
     16. B(H  16,C   1)                  2.4956         0.002060   
     17. B(H  16,H  12)                  2.4381         0.000487   
     18. B(H  16,N   0)                  2.0335         0.010075   
     19. B(H  16,O  14)                  0.9736         0.494580   
     20. A(C   1,N   0,H  12)          114.1309         0.348163   
     21. A(H  12,N   0,H  16)          100.5907         0.179560   
     22. A(H  13,N   0,H  16)          123.0025         0.179814   
     23. A(H  12,N   0,H  13)          111.6831         0.299549   
     24. A(C   1,N   0,H  13)          114.2655         0.348891   
     25. A(C   1,N   0,H  16)           91.4020         0.200782   
     26. A(N   0,C   1,C   2)          121.5013         0.417302   
     27. A(C   2,C   1,H  16)          122.9233         0.170042   
     28. A(N   0,C   1,C   3)          119.5161         0.417685   
     29. A(C   3,C   1,H  16)           89.7902         0.170137   
     30. A(C   2,C   1,C   3)          118.8735         0.426321   
     31. A(N   0,C   1,H  16)           54.5487         0.167967   
     32. A(C   4,C   2,H   7)          120.0795         0.351375   
     33. A(C   1,C   2,H   7)          119.4751         0.348923   
     34. A(C   1,C   2,C   4)          120.4451         0.429107   
     35. A(C   5,C   3,H   8)          120.3490         0.351652   
     36. A(C   1,C   3,H   8)          119.3880         0.349442   
     37. A(C   1,C   3,C   5)          120.2480         0.429580   
     38. A(C   6,C   4,H   9)          120.0570         0.350965   
     39. A(C   2,C   4,C   6)          120.5625         0.431528   
     40. A(C   2,C   4,H   9)          119.3800         0.351568   
     41. A(C   3,C   5,H  10)          119.2375         0.351651   
     42. A(C   3,C   5,C   6)          120.7942         0.431454   
     43. A(C   6,C   5,H  10)          119.9681         0.350874   
     44. A(C   5,C   6,H  11)          120.4560         0.351087   
     45. A(C   4,C   6,H  11)          120.4687         0.351203   
     46. A(C   4,C   6,C   5)          119.0752         0.430591   
     47. A(N   0,H  12,H  16)           55.0714         0.125911   
     48. A(H  15,O  14,H  16)          102.2860         0.318022   
     49. A(N   0,H  16,H  12)           24.3380         0.104920   
     50. A(H  12,H  16,O  14)          149.8276         0.127432   
     51. A(N   0,H  16,O  14)          159.9294         0.183291   
     52. A(C   1,H  16,H  12)           48.8625         0.100247   
     53. A(N   0,H  16,C   1)           34.0493         0.116594   
     54. A(C   1,H  16,O  14)          126.8172         0.155611   
     55. D(C   3,C   1,N   0,H  16)     65.9040         0.027489   
     56. D(C   2,C   1,N   0,H  16)   -110.2545         0.027489   
     57. D(C   3,C   1,N   0,H  13)   -166.6024         0.027489   
     58. D(C   2,C   1,N   0,H  13)     17.2390         0.027489   
     59. D(C   2,C   1,N   0,H  12)    147.4816         0.027489   
     60. D(C   3,C   1,N   0,H  12)    -36.3598         0.027489   
     61. D(C   4,C   2,C   1,H  16)    110.7560         0.025847   
     62. D(C   4,C   2,C   1,N   0)    176.3246         0.025847   
     63. D(H   7,C   2,C   1,C   3)   -179.6754         0.025847   
     64. D(H   7,C   2,C   1,N   0)     -3.4928         0.025847   
     65. D(C   4,C   2,C   1,C   3)      0.1421         0.025847   
     66. D(C   5,C   3,C   1,H  16)   -128.6186         0.026129   
     67. D(C   5,C   3,C   1,C   2)     -0.4004         0.026129   
     68. D(H   8,C   3,C   1,N   0)      1.9380         0.026129   
     69. D(C   5,C   3,C   1,N   0)   -176.6602         0.026129   
     70. D(H   8,C   3,C   1,C   2)    178.1978         0.026129   
     71. D(H   9,C   4,C   2,H   7)     -0.2394         0.025974   
     72. D(H   9,C   4,C   2,C   1)    179.9442         0.025974   
     73. D(C   6,C   4,C   2,H   7)   -179.9957         0.025974   
     74. D(C   6,C   4,C   2,C   1)      0.1880         0.025974   
     75. D(H  10,C   5,C   3,H   8)      1.5635         0.026028   
     76. D(C   6,C   5,C   3,H   8)   -178.2504         0.026028   
     77. D(C   6,C   5,C   3,C   1)      0.3343         0.026028   
     78. D(H  10,C   5,C   3,C   1)   -179.8518         0.026028   
     79. D(C   4,C   6,C   5,H  10)   -179.8150         0.025318   
     80. D(C   4,C   6,C   5,C   3)     -0.0025         0.025318   
     81. D(H  11,C   6,C   4,H   9)      0.0758         0.025422   
     82. D(H  11,C   6,C   4,C   2)    179.8305         0.025422   
     83. D(C   5,C   6,C   4,H   9)    179.9873         0.025422   
     84. D(H  11,C   6,C   5,C   3)    179.9090         0.025318   
     85. D(C   5,C   6,C   4,C   2)     -0.2581         0.025422   
     86. D(H  11,C   6,C   5,H  10)      0.0964         0.025318   
     87. D(H  16,H  12,N   0,H  13)   -132.1173         0.214117   
     88. D(H  16,H  12,N   0,C   1)     96.3749         0.214117   
     89. D(C   1,H  16,O  14,H  15)      8.7461         0.337038   
     90. D(H  12,H  16,O  14,H  15)     78.4155         0.337038   
     91. D(N   0,H  16,O  14,H  15)     23.4897         0.337038   
     92. D(C   1,H  16,H  12,N   0)    -42.4135         0.001503   
     93. D(H  12,H  16,C   1,N   0)     29.7653         0.001503   
     94. D(N   0,H  16,C   1,C   3)   -127.4019         0.001503   
     95. D(N   0,H  16,C   1,C   2)    107.6455         0.001503   
     96. D(O  14,H  16,C   1,C   3)     43.6242         0.001503   
     97. D(O  14,H  16,C   1,C   2)    -81.3284         0.001503   
     98. D(O  14,H  16,C   1,N   0)    171.0261         0.001503   
     99. D(C   1,H  16,N   0,H  12)    114.8730         0.001569   
    100. D(O  14,H  16,H  12,N   0)   -137.0390         0.001503   
    101. D(H  12,H  16,N   0,H  13)    124.7242         0.001569   
    102. D(H  12,H  16,N   0,C   1)   -114.8730         0.001569   
    103. D(O  14,H  16,N   0,H  13)   -141.7411         0.001569   
    104. D(O  14,H  16,N   0,H  12)     93.5346         0.001569   
    105. D(O  14,H  16,N   0,C   1)    -21.3384         0.001569   
    -----------------------------------------------------------------

Number of atoms                         .... 17
Number of degrees of freedom            .... 105


         *************************************************************
         *                GEOMETRY OPTIMIZATION CYCLE   1            *
         *************************************************************
---------------------------------
CARTESIAN COORDINATES (ANGSTROEM)
---------------------------------
  N     -2.520841    0.197791    0.021185
  C     -1.123964    0.149725    0.020439
  C     -0.348750    1.311418   -0.145733
  C     -0.473178   -1.070287    0.269851
  C      1.042813    1.249998   -0.066738
  C      0.918886   -1.122278    0.341672
  C      1.688070    0.033629    0.174648
  H     -0.845510    2.267517   -0.335029
  H     -1.068490   -1.972831    0.429764
  H      1.628312    2.163432   -0.199520
  H      1.408086   -2.080517    0.534076
  H      2.777462   -0.013159    0.233437
  H     -2.967867   -0.635707   -0.366510
  H     -2.910596    1.052204   -0.373841
  O     -2.306204   -0.558688    2.881973
  H     -1.342810   -0.546414    2.808968
  H     -2.584409   -0.233636    2.007399

----------------------------
CARTESIAN COORDINATES (A.U.)
----------------------------
  NO LB      ZA    FRAG     MASS         X           Y           Z
   0 N     7.0000    0    14.007   -4.763699    0.373771    0.040033
   1 C     6.0000    0    12.011   -2.123983    0.282940    0.038625
   2 C     6.0000    0    12.011   -0.659042    2.478221   -0.275396
   3 C     6.0000    0    12.011   -0.894178   -2.022549    0.509945
   4 C     6.0000    0    12.011    1.970632    2.362154   -0.126117
   5 C     6.0000    0    12.011    1.736442   -2.120799    0.645667
   6 C     6.0000    0    12.011    3.189990    0.063549    0.330037
   7 H     1.0000    0     1.008   -1.597782    4.284986   -0.633113
   8 H     1.0000    0     1.008   -2.019154   -3.728110    0.812137
   9 H     1.0000    0     1.008    3.077064    4.088295   -0.377038
  10 H     1.0000    0     1.008    2.660897   -3.931608    1.009257
  11 H     1.0000    0     1.008    5.248643   -0.024867    0.441132
  12 H     1.0000    0     1.008   -5.608455   -1.201312   -0.692603
  13 H     1.0000    0     1.008   -5.500229    1.988378   -0.706457
  14 O     8.0000    0    15.999   -4.358095   -1.055767    5.446140
  15 H     1.0000    0     1.008   -2.537544   -1.032573    5.308180
  16 H     1.0000    0     1.008   -4.883825   -0.441508    3.793434

--------------------------------
INTERNAL COORDINATES (ANGSTROEM)
--------------------------------
 N      0   0   0     0.000000000000     0.00000000     0.00000000
 C      1   0   0     1.397704189194     0.00000000     0.00000000
 C      2   1   0     1.406449069766   121.50125781     0.00000000
 C      2   1   3     1.405047233332   119.51611687   176.15854067
 C      3   2   1     1.395156448865   120.44514574   176.32464756
 C      4   2   1     1.394884935809   120.24803439   183.33976891
 C      5   3   2     1.397919162050   120.56250377     0.18795344
 H      3   2   1     1.093950722029   119.47509465   356.50717940
 H      4   2   1     1.092956535639   119.38800889     1.93799196
 H      5   3   2     1.093069834972   119.38001805   179.94422954
 H      6   4   2     1.092958453626   119.23747638   180.14818801
 H      7   5   3     1.091980341197   120.46872313   179.83045608
 H      1   2   3     1.022183172092   114.13088693   147.48163704
 H      1   2   3     1.018811093445   114.26549617    17.23901492
 O      1   2   3     2.966890736517    85.37951563   247.38922882
 H     15   1   2     0.966234304751    89.77299569     1.51622401
 H     15   1   2     0.973620422121    13.60432252   158.59536855

---------------------------
INTERNAL COORDINATES (A.U.)
---------------------------
 N      0   0   0     0.000000000000     0.00000000     0.00000000
 C      1   0   0     2.641278133811     0.00000000     0.00000000
 C      2   1   0     2.657803563166   121.50125781     0.00000000
 C      2   1   3     2.655154476221   119.51611687   176.15854067
 C      3   2   1     2.636463602329   120.44514574   176.32464756
 C      4   2   1     2.635950517011   120.24803439   183.33976891
 C      5   3   2     2.641684373635   120.56250377     0.18795344
 H      3   2   1     2.067267268641   119.47509465   356.50717940
 H      4   2   1     2.065388528637   119.38800889     1.93799196
 H      5   3   2     2.065602633348   119.38001805   179.94422954
 H      6   4   2     2.065392153108   119.23747638   180.14818801
 H      7   5   3     2.063543788488   120.46872313   179.83045608
 H      1   2   3     1.931646253956   114.13088693   147.48163704
 H      1   2   3     1.925273948813   114.26549617    17.23901492
 O      1   2   3     5.606610961286    85.37951563   247.38922882
 H     15   1   2     1.825918217180    89.77299569     1.51622401
 H     15   1   2     1.839875956201    13.60432252   158.59536855

---------------------
BASIS SET INFORMATION
---------------------
There are 4 groups of distinct atoms

 Group   1 Type N   : 7s4p1d contracted to 3s2p1d pattern {511/31/1}
 Group   2 Type C   : 7s4p1d contracted to 3s2p1d pattern {511/31/1}
 Group   3 Type H   : 4s1p contracted to 2s1p pattern {31/1}
 Group   4 Type O   : 7s4p1d contracted to 3s2p1d pattern {511/31/1}

Atom   0N    basis set group =>   1
Atom   1C    basis set group =>   2
Atom   2C    basis set group =>   2
Atom   3C    basis set group =>   2
Atom   4C    basis set group =>   2
Atom   5C    basis set group =>   2
Atom   6C    basis set group =>   2
Atom   7H    basis set group =>   3
Atom   8H    basis set group =>   3
Atom   9H    basis set group =>   3
Atom  10H    basis set group =>   3
Atom  11H    basis set group =>   3
Atom  12H    basis set group =>   3
Atom  13H    basis set group =>   3
Atom  14O    basis set group =>   4
Atom  15H    basis set group =>   3
Atom  16H    basis set group =>   3
---------------------------------
AUXILIARY/J BASIS SET INFORMATION
---------------------------------
There are 4 groups of distinct atoms

 Group   1 Type N   : 12s5p4d2f1g contracted to 6s4p3d1f1g pattern {711111/2111/211/2/1}
 Group   2 Type C   : 12s5p4d2f1g contracted to 6s4p3d1f1g pattern {711111/2111/211/2/1}
 Group   3 Type H   : 5s2p1d contracted to 3s1p1d pattern {311/2/1}
 Group   4 Type O   : 12s5p4d2f1g contracted to 6s4p3d1f1g pattern {711111/2111/211/2/1}

Atom   0N    basis set group =>   1
Atom   1C    basis set group =>   2
Atom   2C    basis set group =>   2
Atom   3C    basis set group =>   2
Atom   4C    basis set group =>   2
Atom   5C    basis set group =>   2
Atom   6C    basis set group =>   2
Atom   7H    basis set group =>   3
Atom   8H    basis set group =>   3
Atom   9H    basis set group =>   3
Atom  10H    basis set group =>   3
Atom  11H    basis set group =>   3
Atom  12H    basis set group =>   3
Atom  13H    basis set group =>   3
Atom  14O    basis set group =>   4
Atom  15H    basis set group =>   3
Atom  16H    basis set group =>   3
--------------------------------------------------------------------------
By default, for Open MPI 4.0 and later, infiniband ports on a device
are not used by default.  The intent is to use UCX for these devices.
You can override this policy by setting the btl_openib_allow_ib MCA parameter
to true.

  Local host:              psid02
  Local adapter:           mlx5_0
  Local port:              1

--------------------------------------------------------------------------
--------------------------------------------------------------------------
WARNING: There was an error initializing an OpenFabrics device.

  Local host:   psid02
  Local device: mlx5_0
--------------------------------------------------------------------------


           ************************************************************
           *        Program running with 28 parallel MPI-processes    *
           *              working on a common directory               *
           ************************************************************
------------------------------------------------------------------------------
                             ORCA STARTUP CALCULATIONS
                           -- RI-GTO INTEGRALS CHOSEN --
------------------------------------------------------------------------------
------------------------------------------------------------------------------
                   ___                                                        
                  /   \      - P O W E R E D   B Y -                         
                 /     \                                                     
                 |  |  |   _    _      __       _____    __    __             
                 |  |  |  | |  | |    /  \     |  _  \  |  |  /  |          
                  \  \/   | |  | |   /    \    | | | |  |  | /  /          
                 / \  \   | |__| |  /  /\  \   | |_| |  |  |/  /          
                |  |  |   |  __  | /  /__\  \  |    /   |      \           
                |  |  |   | |  | | |   __   |  |    \   |  |\   \          
                \     /   | |  | | |  |  |  |  | |\  \  |  | \   \       
                 \___/    |_|  |_| |__|  |__|  |_| \__\ |__|  \__/        
                                                                              
                      - O R C A' S   B I G   F R I E N D -                    
                                      &                                       
                       - I N T E G R A L  F E E D E R -                       
                                                                              
 v1 FN, 2020, v2 2021, v3 2022-2024                                           
------------------------------------------------------------------------------


----------------------
SHARK INTEGRAL PACKAGE
----------------------

Number of atoms                             ...     17
Number of basis functions                   ...    157
Number of shells                            ...     75
Maximum angular momentum                    ...      2
Integral batch strategy                     ... SHARK/LIBINT Hybrid
RI-J (if used) integral strategy            ... SPLIT-RIJ (Revised 2003 algorithm where possible)
Printlevel                                  ...      1
Contraction scheme used                     ... SEGMENTED contraction
Prescreening option                         ... SCHWARTZ
   Thresh                                   ... 2.500e-11
   Tcut                                     ... 2.500e-12
   Tpresel                                  ... 2.500e-12 
Coulomb Range Separation                    ... NOT USED
Exchange Range Separation                   ... NOT USED
Multipole approximations                    ... NOT USED
Finite Nucleus Model                        ... NOT USED
CABS basis                                  ... NOT available
Auxiliary Coulomb fitting basis             ... AVAILABLE
   # of basis functions in Aux-J            ...    491
   # of shells in Aux-J                     ...    165
   Maximum angular momentum in Aux-J        ...      4
Auxiliary J/K fitting basis                 ... NOT available
Auxiliary Correlation fitting basis         ... NOT available
Auxiliary 'external' fitting basis          ... NOT available

Checking pre-screening integrals            ... done (  0.0 sec) Dimension = 75
Check shell pair data                       ... done (  0.0 sec)
Shell pair information
Shell pair cut-off parameter TPreSel        ...   2.5e-12
Total number of shell pairs                 ...      2850
Shell pairs after pre-screening             ...      2688
Total number of primitive shell pairs       ...     10142
Primitive shell pairs kept                  ...      7021
          la=0 lb=0:    858 shell pairs
          la=1 lb=0:    989 shell pairs
          la=1 lb=1:    305 shell pairs
          la=2 lb=0:    314 shell pairs
          la=2 lb=1:    188 shell pairs
          la=2 lb=2:     34 shell pairs

Calculating one electron integrals          ... done (  0.0 sec)
Calculating RI/J V-Matrix + Cholesky decomp.... done (  0.0 sec)
Calculating Nuclear repulsion               ... done (  0.0 sec) ENN=    351.715294568742 Eh

Diagonalization of the overlap matrix:
Smallest eigenvalue                        ... 2.817e-04
Time for diagonalization                   ...    0.003 sec
Threshold for overlap eigenvalues          ... 1.000e-07
Number of eigenvalues below threshold      ... 0
Time for construction of square roots      ...    0.002 sec
Total time needed                          ...    0.010 sec

-------------------
DFT GRID GENERATION
-------------------

General Integration Accuracy     IntAcc      ... 4.388
Radial Grid Type                 RadialGrid  ... OptM3 with GC (2021)
Angular Grid (max. ang.)         AngularGrid ... 4 (Lebedev-302)
Angular grid pruning method      GridPruning ... 4 (adaptive)
Weight generation scheme         WeightScheme... mBecke (2022)
Basis function cutoff            BFCut       ... 1.0000e-11
Integration weight cutoff        WCut        ... 1.0000e-14
Partially contracted basis set               ... off
Rotationally invariant grid construction     ... off
Angular grids for H and He will be reduced by one unit

Total number of grid points                  ...    77133
Total number of batches                      ...     1214
Average number of points per batch           ...       63
Average number of grid points per atom       ...     4537

--------------------
COSX GRID GENERATION
--------------------

GRIDX 1
-------
General Integration Accuracy     IntAcc      ... 3.816
Radial Grid Type                 RadialGrid  ... OptM3 with GC (2021)
Angular Grid (max. ang.)         AngularGrid ... 1 (Lebedev-50)
Angular grid pruning method      GridPruning ... 4 (adaptive)
Weight generation scheme         WeightScheme... mBecke (2022)
Basis function cutoff            BFCut       ... 1.0000e-11
Integration weight cutoff        WCut        ... 1.0000e-14
Partially contracted basis set               ... on
Rotationally invariant grid construction     ... off
Angular grids for H and He will be reduced by one unit

Total number of grid points                  ...     9871
Total number of batches                      ...       86
Average number of points per batch           ...      114
Average number of grid points per atom       ...      581
UseSFitting                                  ... on

GRIDX 2
-------
General Integration Accuracy     IntAcc      ... 4.020
Radial Grid Type                 RadialGrid  ... OptM3 with GC (2021)
Angular Grid (max. ang.)         AngularGrid ... 2 (Lebedev-110)
Angular grid pruning method      GridPruning ... 4 (adaptive)
Weight generation scheme         WeightScheme... mBecke (2022)
Basis function cutoff            BFCut       ... 1.0000e-11
Integration weight cutoff        WCut        ... 1.0000e-14
Partially contracted basis set               ... on
Rotationally invariant grid construction     ... off
Angular grids for H and He will be reduced by one unit

Total number of grid points                  ...    21232
Total number of batches                      ...      175
Average number of points per batch           ...      121
Average number of grid points per atom       ...     1249
UseSFitting                                  ... on

GRIDX 3
-------
General Integration Accuracy     IntAcc      ... 4.338
Radial Grid Type                 RadialGrid  ... OptM3 with GC (2021)
Angular Grid (max. ang.)         AngularGrid ... 3 (Lebedev-194)
Angular grid pruning method      GridPruning ... 4 (adaptive)
Weight generation scheme         WeightScheme... mBecke (2022)
Basis function cutoff            BFCut       ... 1.0000e-11
Integration weight cutoff        WCut        ... 1.0000e-14
Partially contracted basis set               ... on
Rotationally invariant grid construction     ... off
Angular grids for H and He will be reduced by one unit

Total number of grid points                  ...    46547
Total number of batches                      ...      371
Average number of points per batch           ...      125
Average number of grid points per atom       ...     2738
UseSFitting                                  ... on
Initializing property integral containers    ... done (  0.0 sec)

SHARK setup successfully completed in   0.7 seconds

Maximum memory used throughout the entire STARTUP-calculation: 19.3 MB
[psid02:227860] 27 more processes have sent help message help-mpi-btl-openib.txt / ib port not selected
[psid02:227860] Set MCA parameter "orte_base_help_aggregate" to 0 to see all help / error messages
[psid02:227860] 27 more processes have sent help message help-mpi-btl-openib.txt / error in device init
--------------------------------------------------------------------------
By default, for Open MPI 4.0 and later, infiniband ports on a device
are not used by default.  The intent is to use UCX for these devices.
You can override this policy by setting the btl_openib_allow_ib MCA parameter
to true.

  Local host:              psid02
  Local adapter:           mlx5_0
  Local port:              1

--------------------------------------------------------------------------
--------------------------------------------------------------------------
WARNING: There was an error initializing an OpenFabrics device.

  Local host:   psid02
  Local device: mlx5_0
--------------------------------------------------------------------------


           ************************************************************
           *        Program running with 28 parallel MPI-processes    *
           *              working on a common directory               *
           ************************************************************
-------------------------------------------------------------------------------
                                 ORCA GUESS
                   Start orbitals & Density for SCF / CASSCF
-------------------------------------------------------------------------------

------------
SCF SETTINGS
------------
Hamiltonian:
 Density Functional     Method          .... DFT(GTOs)
 Exchange Functional    Exchange        .... B88
   X-Alpha parameter    XAlpha          ....  0.666667
   Becke's b parameter  XBeta           ....  0.004200
 Correlation Functional Correlation     .... LYP
 LDA part of GGA corr.  LDAOpt          .... VWN-5
 Gradients option       PostSCFGGA      .... off
 Hybrid DFT is turned on
   Fraction HF Exchange ScalHFX         ....  0.200000
   Scaling of DF-GGA-X  ScalDFX         ....  0.720000
   Scaling of DF-GGA-C  ScalDFC         ....  0.810000
   Scaling of DF-LDA-C  ScalLDAC        ....  1.000000
   Perturbative correction              ....  0.000000
   NL short-range parameter             ....  4.800000
 RI-approximation to the Coulomb term is turned on
   Number of AuxJ basis functions       .... 491
   RIJ-COSX (HFX calculated with COS-X)).... on


General Settings:
 Integral files         IntName         .... aniline_water_2_OPT
 Hartree-Fock type      HFTyp           .... RHF
 Total Charge           Charge          ....    0
 Multiplicity           Mult            ....    1
 Number of Electrons    NEL             ....   60
 Basis Dimension        Dim             ....  157
 Nuclear Repulsion      ENuc            ....    351.7152945687 Eh

Convergence Acceleration:
 AO-DIIS                CNVDIIS         .... on
   Start iteration      DIISMaxIt       ....    12
   Startup error        DIISStart       ....  0.200000
   # of expansion vecs  DIISMaxEq       ....     5
   Bias factor          DIISBfac        ....   1.050
   Max. coefficient     DIISMaxC        ....  10.000
 MO-DIIS                CNVKDIIS        .... off
 Trust-Rad. Augm. Hess. CNVTRAH         .... auto
   Auto Start mean grad. ratio tolernc. ....  1.125000
   Auto Start start iteration           ....    50
   Auto Start num. interpolation iter.  ....    10
   Max. Number of Micro iterations      ....    24
   Max. Number of Macro iterations      .... Maxiter - #DIIS iter
   Number of Davidson start vectors     ....     2
   Converg. threshold    (grad. norm)   ....   1.000e-05
   Grad. Scal. Fac. for Micro threshold ....   0.100
   Minimum threshold for Micro iter.    ....   1.000e-02
   NR start threshold (gradient norm)   ....   1.000e-04
   Initial trust radius                 ....   0.400
   Minimum AH scaling param. (alpha)    ....   1.000
   Maximum AH scaling param. (alpha)    .... 1000.000
   Quad. conv. algorithm                .... NR
   White noise on init. David. guess    .... on
   Maximum white noise                  ....   0.010
   Pseudo random numbers                .... off
   Inactive MOs                         .... canonical
   Orbital update algorithm             .... Taylor
   Preconditioner                       .... Diag
   Full preconditioner red. dimension   ....   250
 SOSCF                  CNVSOSCF        .... on
   Start iteration      SOSCFMaxIt      ....   150
   Startup grad/error   SOSCFStart      ....  0.003300
   Hessian update       SOSCFHessUp     .... L-BFGS
 Level Shifting         CNVShift        .... on
   Level shift para.    LevelShift      ....    0.2500
   Turn off err/grad.   ShiftErr        ....    0.0010
 Zerner damping         CNVZerner       .... off
 Static damping         CNVDamp         .... on
   Fraction old density DampFac         ....    0.7000
   Max. Damping (<1)    DampMax         ....    0.9800
   Min. Damping (>=0)   DampMin         ....    0.0000
   Turn off err/grad.   DampErr         ....    0.1000

SCF Procedure:
 Maximum # iterations   MaxIter         ....   125
 SCF integral mode      SCFMode         .... Direct
   Integral package                     .... SHARK and LIBINT hybrid scheme
 Reset frequency        DirectResetFreq ....    20
 Integral Threshold     Thresh          ....  2.500e-11 Eh
 Primitive CutOff       TCut            ....  2.500e-12 Eh

Convergence Tolerance:
 Convergence Check Mode ConvCheckMode   .... Total+1el-Energy
 Convergence forced     ConvForced      .... 0
 Energy Change          TolE            ....  1.000e-08 Eh
 1-El. energy change                    ....  1.000e-05 Eh
 Orbital Gradient       TolG            ....  1.000e-05
 Orbital Rotation angle TolX            ....  1.000e-05
 DIIS Error             TolErr          ....  5.000e-07

------------------------------
INITIAL GUESS: MODEL POTENTIAL
------------------------------
Loading Hartree-Fock densities                     ... done
Calculating cut-offs                               ... done
Initializing the effective Hamiltonian             ... done
Setting up the integral package (SHARK)            ... done
Starting the Coulomb interaction                   ... done (   0.0 sec)
Making the grid                                    ... done (   0.1 sec)
Mapping shells                                     ... done
Starting the XC term evaluation                    ... done (   0.0 sec)
  promolecular density results
     # of electrons  =     59.997937254
     EX              =    -48.275436345
     EC              =     -2.001040442
     EX+EC           =    -50.276476788
Transforming the Hamiltonian                       ... done (   0.0 sec)
Diagonalizing the Hamiltonian                      ... done (   0.0 sec)
Back transforming the eigenvectors                 ... done (   0.0 sec)
Now organizing SCF variables                       ... done
                      ------------------
                      INITIAL GUESS DONE (   0.2 sec)
                      ------------------
             **** ENERGY FILE WAS UPDATED (aniline_water_2_OPT.en.tmp) ****
Finished Guess after   0.9 sec
Maximum memory used throughout the entire GUESS-calculation: 11.2 MB
[psid02:227965] 27 more processes have sent help message help-mpi-btl-openib.txt / ib port not selected
[psid02:227965] Set MCA parameter "orte_base_help_aggregate" to 0 to see all help / error messages
[psid02:227965] 27 more processes have sent help message help-mpi-btl-openib.txt / error in device init
--------------------------------------------------------------------------
By default, for Open MPI 4.0 and later, infiniband ports on a device
are not used by default.  The intent is to use UCX for these devices.
You can override this policy by setting the btl_openib_allow_ib MCA parameter
to true.

  Local host:              psid02
  Local adapter:           mlx5_0
  Local port:              1

--------------------------------------------------------------------------
--------------------------------------------------------------------------
WARNING: There was an error initializing an OpenFabrics device.

  Local host:   psid02
  Local device: mlx5_0
--------------------------------------------------------------------------


           ************************************************************
           *        Program running with 28 parallel MPI-processes    *
           *              working on a common directory               *
           ************************************************************

-------------------------------------------------------------------------------------------
                                      ORCA LEAN-SCF
                              memory conserving SCF solver
-------------------------------------------------------------------------------------------

----------------------------------------D-I-I-S--------------------------------------------
Iteration    Energy (Eh)           Delta-E    RMSDP     MaxDP     DIISErr   Damp  Time(sec)
-------------------------------------------------------------------------------------------
               ***  Starting incremental Fock matrix formation  ***
    1    -363.2757012561411329     0.00e+00  4.38e-03  8.98e-02  3.05e-01  0.700   0.3
    2    -363.4030480643881447    -1.27e-01  2.99e-03  5.01e-02  1.31e-01  0.700   0.3
                               ***Turning on AO-DIIS***
    3    -363.4538745473755625    -5.08e-02  1.24e-03  1.83e-02  3.96e-02  0.700   0.3
    4    -363.4837901902238855    -2.99e-02  2.21e-03  3.08e-02  2.05e-02  0.000   0.3
    5    -363.5491210751278004    -6.53e-02  3.53e-04  1.02e-02  5.40e-03  0.000   0.3
                              *** Initializing SOSCF ***
---------------------------------------S-O-S-C-F--------------------------------------
Iteration    Energy (Eh)           Delta-E    RMSDP     MaxDP     MaxGrad    Time(sec)
--------------------------------------------------------------------------------------
    6    -363.5494450031635552    -3.24e-04  1.55e-04  5.00e-03  2.40e-03     0.3
               *** Restarting incremental Fock matrix formation ***
    7    -363.5494117685495894     3.32e-05  7.50e-05  1.20e-03  2.48e-04     0.3
    8    -363.5494117023424678     6.62e-08  3.32e-05  6.99e-04  2.91e-04     0.3
    9    -363.5494144134884209    -2.71e-06  1.82e-05  3.84e-04  1.04e-04     0.3
   10    -363.5494142981679033     1.15e-07  9.40e-06  1.79e-04  1.18e-04     0.3
   11    -363.5494145955241265    -2.97e-07  2.39e-06  6.20e-05  8.50e-06     0.3
   12    -363.5494145957110277    -1.87e-10  1.10e-06  3.40e-05  1.14e-05     0.3
                 **** Energy Check signals convergence ****

               *****************************************************
               *                     SUCCESS                       *
               *           SCF CONVERGED AFTER  12 CYCLES          *
               *****************************************************

Recomputing exchange energy using gridx3       ... done (    0.233 sec)
Old exchange energy                            :     -9.815475987 Eh
New exchange energy                            :     -9.815508532 Eh
Exchange energy change after final integration :     -0.000032545 Eh
Total energy after final integration           :   -363.549447141 Eh
             **** ENERGY FILE WAS UPDATED (aniline_water_2_OPT.en.tmp) ****

----------------
TOTAL SCF ENERGY
----------------

Total Energy       :       -363.54944714075663 Eh           -9892.68339 eV

Components:
Nuclear Repulsion  :        351.71529456874157 Eh            9570.65973 eV
Electronic Energy  :       -715.26470916445260 Eh          -19463.34223 eV
One Electron Energy:      -1189.24978222028517 Eh          -32361.13178 eV
Two Electron Energy:        473.98507305583257 Eh           12897.78955 eV

Virial components:
Potential Energy   :       -723.51246022684950 Eh          -19687.77495 eV
Kinetic Energy     :        359.96301308609287 Eh            9795.09156 eV
Virial Ratio       :          2.00996334046633

DFT components:
N(Alpha)           :       29.999976776285 electrons
N(Beta)            :       29.999976776285 electrons
N(Total)           :       59.999953552570 electrons
E(X)               :      -38.986665576891 Eh       
E(C)               :       -2.370434164438 Eh       
E(XC)              :      -41.357099741329 Eh       

---------------
SCF CONVERGENCE
---------------

  Last Energy change         ...    1.8690e-10  Tolerance :   1.0000e-08
  Last MAX-Density change    ...    3.3963e-05  Tolerance :   1.0000e-07
  Last RMS-Density change    ...    1.1033e-06  Tolerance :   5.0000e-09
  Last DIIS Error            ...    2.4009e-03  Tolerance :   5.0000e-07
  Last Orbital Gradient      ...    1.1439e-05  Tolerance :   1.0000e-05
  Last Orbital Rotation      ...    1.4672e-05  Tolerance :   1.0000e-05


----------------
ORBITAL ENERGIES
----------------

  NO   OCC          E(Eh)            E(eV) 
   0   2.0000     -19.081839      -519.2432 
   1   2.0000     -14.351736      -390.5306 
   2   2.0000     -10.233842      -278.4770 
   3   2.0000     -10.193593      -277.3818 
   4   2.0000     -10.193324      -277.3745 
   5   2.0000     -10.190778      -277.3052 
   6   2.0000     -10.188914      -277.2544 
   7   2.0000     -10.184629      -277.1378 
   8   2.0000      -0.943864       -25.6838 
   9   2.0000      -0.922033       -25.0898 
  10   2.0000      -0.834864       -22.7178 
  11   2.0000      -0.741654       -20.1814 
  12   2.0000      -0.723658       -19.6917 
  13   2.0000      -0.613885       -16.7047 
  14   2.0000      -0.599322       -16.3084 
  15   2.0000      -0.530250       -14.4288 
  16   2.0000      -0.517872       -14.0920 
  17   2.0000      -0.482147       -13.1199 
  18   2.0000      -0.474325       -12.9070 
  19   2.0000      -0.439121       -11.9491 
  20   2.0000      -0.435818       -11.8592 
  21   2.0000      -0.423631       -11.5276 
  22   2.0000      -0.398050       -10.8315 
  23   2.0000      -0.364434        -9.9167 
  24   2.0000      -0.348500        -9.4832 
  25   2.0000      -0.339578        -9.2404 
  26   2.0000      -0.314548        -8.5593 
  27   2.0000      -0.262639        -7.1468 
  28   2.0000      -0.255213        -6.9447 
  29   2.0000      -0.222029        -6.0417 
  30   0.0000      -0.012772        -0.3475 
  31   0.0000      -0.000243        -0.0066 
  32   0.0000       0.043067         1.1719 
  33   0.0000       0.065083         1.7710 
  34   0.0000       0.079680         2.1682 
  35   0.0000       0.103423         2.8143 
  36   0.0000       0.116454         3.1689 
  37   0.0000       0.116849         3.1796 
  38   0.0000       0.149158         4.0588 
  39   0.0000       0.153832         4.1860 
  40   0.0000       0.155970         4.2442 
*Only the first 10 virtual orbitals were printed.

                    ********************************
                    * MULLIKEN POPULATION ANALYSIS *
                    ********************************

-----------------------
MULLIKEN ATOMIC CHARGES
-----------------------
   0 N :   -0.106608
   1 C :    0.020257
   2 C :   -0.004716
   3 C :   -0.042724
   4 C :    0.015049
   5 C :    0.013935
   6 C :    0.018724
   7 H :   -0.040670
   8 H :   -0.032642
   9 H :   -0.015722
  10 H :   -0.014107
  11 H :   -0.019550
  12 H :    0.127926
  13 H :    0.113057
  14 O :   -0.322187
  15 H :    0.149945
  16 H :    0.140034
Sum of atomic charges:    0.0000000

--------------------------------
MULLIKEN REDUCED ORBITAL CHARGES
--------------------------------
  0 N s       :     3.341616  s :     3.341616
      pz      :     1.620187  p :     3.747180
      px      :     1.090458
      py      :     1.036535
      dz2     :     0.001210  d :     0.017813
      dxz     :     0.003523
      dyz     :     0.003918
      dx2y2   :     0.005031
      dxy     :     0.004131

  1 C s       :     2.996824  s :     2.996824
      pz      :     0.980005  p :     2.922649
      px      :     0.907501
      py      :     1.035143
      dz2     :     0.004632  d :     0.060269
      dxz     :     0.014569
      dyz     :     0.006709
      dx2y2   :     0.019181
      dxy     :     0.015178

  2 C s       :     3.215076  s :     3.215076
      pz      :     1.042752  p :     2.756905
      px      :     0.880892
      py      :     0.833261
      dz2     :     0.002618  d :     0.032735
      dxz     :     0.005504
      dyz     :     0.003135
      dx2y2   :     0.009250
      dxy     :     0.012228

  3 C s       :     3.244757  s :     3.244757
      pz      :     1.044945  p :     2.765295
      px      :     0.867651
      py      :     0.852699
      dz2     :     0.002716  d :     0.032673
      dxz     :     0.005240
      dyz     :     0.003373
      dx2y2   :     0.009179
      dxy     :     0.012165

  4 C s       :     3.164295  s :     3.164295
      pz      :     0.970429  p :     2.784939
      px      :     0.931209
      py      :     0.883300
      dz2     :     0.002761  d :     0.035718
      dxz     :     0.006247
      dyz     :     0.003722
      dx2y2   :     0.010903
      dxy     :     0.012085

  5 C s       :     3.165807  s :     3.165807
      pz      :     0.970141  p :     2.784527
      px      :     0.938398
      py      :     0.875988
      dz2     :     0.002541  d :     0.035731
      dxz     :     0.006661
      dyz     :     0.003477
      dx2y2   :     0.011375
      dxy     :     0.011677

  6 C s       :     3.154614  s :     3.154614
      pz      :     1.021249  p :     2.792364
      px      :     0.816946
      py      :     0.954169
      dz2     :     0.002781  d :     0.034298
      dxz     :     0.002665
      dyz     :     0.005884
      dx2y2   :     0.012436
      dxy     :     0.010532

  7 H s       :     1.017734  s :     1.017734
      pz      :     0.005481  p :     0.022936
      px      :     0.005383
      py      :     0.012072

  8 H s       :     1.009824  s :     1.009824
      pz      :     0.005216  p :     0.022817
      px      :     0.006401
      py      :     0.011200

  9 H s       :     0.992947  s :     0.992947
      pz      :     0.004746  p :     0.022775
      px      :     0.006721
      py      :     0.011308

 10 H s       :     0.991376  s :     0.991376
      pz      :     0.004884  p :     0.022731
      px      :     0.005706
      py      :     0.012142

 11 H s       :     0.996665  s :     0.996665
      pz      :     0.004974  p :     0.022885
      px      :     0.014619
      py      :     0.003293

 12 H s       :     0.827527  s :     0.827527
      pz      :     0.014041  p :     0.044547
      px      :     0.011246
      py      :     0.019260

 13 H s       :     0.842381  s :     0.842381
      pz      :     0.013947  p :     0.044562
      px      :     0.010504
      py      :     0.020111

 14 O s       :     3.667595  s :     3.667595
      pz      :     1.499458  p :     4.644138
      px      :     1.261339
      py      :     1.883341
      dz2     :     0.004113  d :     0.010454
      dxz     :     0.001146
      dyz     :     0.001787
      dx2y2   :     0.002952
      dxy     :     0.000456

 15 H s       :     0.779733  s :     0.779733
      pz      :     0.016917  p :     0.070321
      px      :     0.034173
      py      :     0.019231

 16 H s       :     0.787951  s :     0.787951
      pz      :     0.034457  p :     0.072015
      px      :     0.016942
      py      :     0.020617



                     *******************************
                     * LOEWDIN POPULATION ANALYSIS *
                     *******************************

----------------------
LOEWDIN ATOMIC CHARGES
----------------------
   0 N :   -0.025728
   1 C :    0.007564
   2 C :   -0.061804
   3 C :   -0.066187
   4 C :   -0.014033
   5 C :   -0.015909
   6 C :   -0.050884
   7 H :    0.022506
   8 H :    0.023983
   9 H :    0.028326
  10 H :    0.028669
  11 H :    0.025737
  12 H :    0.079034
  13 H :    0.074301
  14 O :   -0.161652
  15 H :    0.064782
  16 H :    0.041295

-------------------------------
LOEWDIN REDUCED ORBITAL CHARGES
-------------------------------
  0 N s       :     3.077309  s :     3.077309
      pz      :     1.585356  p :     3.904611
      px      :     1.173926
      py      :     1.145330
      dz2     :     0.002385  d :     0.043807
      dxz     :     0.006278
      dyz     :     0.008372
      dx2y2   :     0.014267
      dxy     :     0.012505

  1 C s       :     2.841654  s :     2.841654
      pz      :     0.958590  p :     3.007569
      px      :     0.952926
      py      :     1.096054
      dz2     :     0.010200  d :     0.143213
      dxz     :     0.029918
      dyz     :     0.014297
      dx2y2   :     0.049738
      dxy     :     0.039061

  2 C s       :     2.860754  s :     2.860754
      pz      :     1.033589  p :     3.113853
      px      :     1.055556
      py      :     1.024708
      dz2     :     0.006226  d :     0.087198
      dxz     :     0.011830
      dyz     :     0.006273
      dx2y2   :     0.028074
      dxy     :     0.034794

  3 C s       :     2.862814  s :     2.862814
      pz      :     1.030912  p :     3.116154
      px      :     1.055982
      py      :     1.029261
      dz2     :     0.006508  d :     0.087218
      dxz     :     0.011302
      dyz     :     0.006869
      dx2y2   :     0.027883
      dxy     :     0.034656

  4 C s       :     2.861655  s :     2.861655
      pz      :     0.958987  p :     3.060622
      px      :     1.056464
      py      :     1.045171
      dz2     :     0.006470  d :     0.091756
      dxz     :     0.013503
      dyz     :     0.007568
      dx2y2   :     0.030814
      dxy     :     0.033402

  5 C s       :     2.861949  s :     2.861949
      pz      :     0.959206  p :     3.062018
      px      :     1.060193
      py      :     1.042619
      dz2     :     0.006032  d :     0.091941
      dxz     :     0.014507
      dyz     :     0.006919
      dx2y2   :     0.031882
      dxy     :     0.032601

  6 C s       :     2.859739  s :     2.859739
      pz      :     1.007479  p :     3.101880
      px      :     1.034221
      py      :     1.060180
      dz2     :     0.006608  d :     0.089265
      dxz     :     0.004879
      dyz     :     0.013138
      dx2y2   :     0.034377
      dxy     :     0.030262

  7 H s       :     0.909868  s :     0.909868
      pz      :     0.016541  p :     0.067626
      px      :     0.016390
      py      :     0.034694

  8 H s       :     0.907551  s :     0.907551
      pz      :     0.016213  p :     0.068466
      px      :     0.019444
      py      :     0.032808

  9 H s       :     0.905594  s :     0.905594
      pz      :     0.014099  p :     0.066080
      px      :     0.019550
      py      :     0.032431

 10 H s       :     0.905161  s :     0.905161
      pz      :     0.014619  p :     0.066171
      px      :     0.016901
      py      :     0.034651

 11 H s       :     0.907002  s :     0.907002
      pz      :     0.015185  p :     0.067261
      px      :     0.041143
      py      :     0.010933

 12 H s       :     0.801642  s :     0.801642
      pz      :     0.043246  p :     0.119324
      px      :     0.027739
      py      :     0.048338

 13 H s       :     0.806516  s :     0.806516
      pz      :     0.043003  p :     0.119184
      px      :     0.025708
      py      :     0.050473

 14 O s       :     3.426278  s :     3.426278
      pz      :     1.536854  p :     4.716327
      px      :     1.343861
      py      :     1.835611
      dz2     :     0.007769  d :     0.019048
      dxz     :     0.001702
      dyz     :     0.002629
      dx2y2   :     0.006673
      dxy     :     0.000275

 15 H s       :     0.755875  s :     0.755875
      pz      :     0.039596  p :     0.179343
      px      :     0.087386
      py      :     0.052361

 16 H s       :     0.765856  s :     0.765856
      pz      :     0.099446  p :     0.192849
      px      :     0.034652
      py      :     0.058751



                      *****************************
                      * MAYER POPULATION ANALYSIS *
                      *****************************

  NA   - Mulliken gross atomic population
  ZA   - Total nuclear charge
  QA   - Mulliken gross atomic charge
  VA   - Mayer's total valence
  BVA  - Mayer's bonded valence
  FA   - Mayer's free valence

  ATOM       NA         ZA         QA         VA         BVA        FA
  0 N      7.1066     7.0000    -0.1066     3.1543     3.1543     0.0000
  1 C      5.9797     6.0000     0.0203     4.0370     4.0370     0.0000
  2 C      6.0047     6.0000    -0.0047     3.8086     3.8086     0.0000
  3 C      6.0427     6.0000    -0.0427     3.8507     3.8507     0.0000
  4 C      5.9850     6.0000     0.0150     3.8652     3.8652     0.0000
  5 C      5.9861     6.0000     0.0139     3.8563     3.8563     0.0000
  6 C      5.9813     6.0000     0.0187     3.8154     3.8154     0.0000
  7 H      1.0407     1.0000    -0.0407     0.9861     0.9861     0.0000
  8 H      1.0326     1.0000    -0.0326     1.0002     1.0002     0.0000
  9 H      1.0157     1.0000    -0.0157     0.9775     0.9775     0.0000
 10 H      1.0141     1.0000    -0.0141     0.9774     0.9774     0.0000
 11 H      1.0195     1.0000    -0.0195     0.9782     0.9782     0.0000
 12 H      0.8721     1.0000     0.1279     0.9912     0.9912     0.0000
 13 H      0.8869     1.0000     0.1131     0.9996     0.9996     0.0000
 14 O      8.3222     8.0000    -0.3222     2.0486     2.0486     0.0000
 15 H      0.8501     1.0000     0.1499     1.0249     1.0249     0.0000
 16 H      0.8600     1.0000     0.1400     1.0799     1.0799    -0.0000

  Mayer bond orders larger than 0.100000
B(  0-N ,  1-C ) :   1.1259 B(  0-N , 12-H ) :   0.9460 B(  0-N , 13-H ) :   0.9468 
B(  1-C ,  2-C ) :   1.3559 B(  1-C ,  3-C ) :   1.3502 B(  2-C ,  4-C ) :   1.3908 
B(  2-C ,  7-H ) :   0.9836 B(  3-C ,  5-C ) :   1.3881 B(  3-C ,  8-H ) :   0.9871 
B(  4-C ,  6-C ) :   1.3802 B(  4-C ,  9-H ) :   0.9793 B(  5-C ,  6-C ) :   1.3751 
B(  5-C , 10-H ) :   0.9813 B(  6-C , 11-H ) :   0.9878 B( 14-O , 15-H ) :   1.0053 
B( 14-O , 16-H ) :   0.9774 

-------
TIMINGS
-------

Total SCF time: 0 days 0 hours 0 min 4 sec 

Total time                  ....       4.773 sec
Sum of individual times     ....       4.635 sec  ( 97.1%)

SCF preparation             ....       0.786 sec  ( 16.5%)
Fock matrix formation       ....       3.172 sec  ( 66.5%)
  Startup                   ....       0.109 sec  (  3.4% of F)
  Split-RI-J                ....       0.291 sec  (  9.2% of F)
  Chain of spheres X        ....       1.511 sec  ( 47.6% of F)
  XC integration            ....       1.080 sec  ( 34.1% of F)
    XC Preparation          ....       0.000 sec  (  0.0% of XC)
    Basis function eval.    ....       0.129 sec  ( 11.9% of XC)
    Density eval.           ....       0.053 sec  (  4.9% of XC)
    XC-Functional eval.     ....       0.032 sec  (  3.0% of XC)
    XC-Potential eval.      ....       0.077 sec  (  7.1% of XC)
Diagonalization             ....       0.000 sec  (  0.0%)
Density matrix formation    ....       0.237 sec  (  5.0%)
Total Energy calculation    ....       0.075 sec  (  1.6%)
Population analysis         ....       0.020 sec  (  0.4%)
Orbital Transformation      ....       0.039 sec  (  0.8%)
Orbital Orthonormalization  ....       0.000 sec  (  0.0%)
DIIS solution               ....       0.183 sec  (  3.8%)
SOSCF solution              ....       0.123 sec  (  2.6%)
Finished LeanSCF after   4.8 sec

Maximum memory used throughout the entire LEANSCF-calculation: 16.5 MB
[psid02:228056] 27 more processes have sent help message help-mpi-btl-openib.txt / ib port not selected
[psid02:228056] Set MCA parameter "orte_base_help_aggregate" to 0 to see all help / error messages
[psid02:228056] 27 more processes have sent help message help-mpi-btl-openib.txt / error in device init


-------------------------------------------------------------------------------
                          DFT DISPERSION CORRECTION                            
                                                                               
                              DFTD3 V3.1  Rev 1                                
                          USING Becke-Johnson damping                          
-------------------------------------------------------------------------------
The B3LYP functional is recognized
Active option DFTDOPT                   ...         4   

molecular C6(AA) [au] = 2812.153549 


            DFT-D V3
 parameters
 s6 scaling factor         :     1.0000 
 a1 scaling factor         :     0.3981 
 s8 scaling factor         :     1.9889 
 a2 scaling factor         :     4.4211 
 ad hoc parameters k1-k3   :    16.0000     1.3333    -4.0000 

 Edisp/kcal,au: -17.193636185323  -0.027399800420 
 E6   /kcal   :  -8.172865499 
 E8   /kcal   :  -9.020770686 
 % E8         :  52.465752961 

-------------------------   ----------------
Dispersion correction           -0.027399800
-------------------------   ----------------


-------------------------   --------------------
FINAL SINGLE POINT ENERGY      -363.576846941177
-------------------------   --------------------

--------------------------------------------------------------------------
By default, for Open MPI 4.0 and later, infiniband ports on a device
are not used by default.  The intent is to use UCX for these devices.
You can override this policy by setting the btl_openib_allow_ib MCA parameter
to true.

  Local host:              psid02
  Local adapter:           mlx5_0
  Local port:              1

--------------------------------------------------------------------------
--------------------------------------------------------------------------
WARNING: There was an error initializing an OpenFabrics device.

  Local host:   psid02
  Local device: mlx5_0
--------------------------------------------------------------------------


           ************************************************************
           *        Program running with 28 parallel MPI-processes    *
           *              working on a common directory               *
           ************************************************************
------------------------------------------------------------------------------
                         ORCA SCF GRADIENT CALCULATION
------------------------------------------------------------------------------

Nuc. rep. gradient        (SHARK) ... done (  0.0 sec)
HCore & Overlap gradient  (SHARK) ... done (  0.0 sec)
Split-RIJ-J gradient      (SHARK) ... done (  0.1 sec)
COSX-gradient                     ... done (  0.8 sec)
XC gradient                       ... done (  0.2 sec)
Dispersion correction             ... done (  0.0 sec)

-------------------
DISPERSION GRADIENT
-------------------

   1   N   :   -0.000626782    0.000073457   -0.000220782
   2   C   :   -0.000331190    0.000078682   -0.000275907
   3   C   :    0.000079323    0.000595288   -0.000240894
   4   C   :    0.000085967   -0.000540638   -0.000146003
   5   C   :    0.000435695    0.000444791   -0.000107094
   6   C   :    0.000484293   -0.000472262   -0.000030373
   7   C   :    0.000597965   -0.000011650   -0.000020315
   8   H   :   -0.000065469    0.000359143   -0.000086965
   9   H   :   -0.000062151   -0.000393968   -0.000047679
  10   H   :    0.000185092    0.000268696   -0.000041919
  11   H   :    0.000177973   -0.000291445    0.000038611
  12   H   :    0.000321516   -0.000012692    0.000013269
  13   H   :   -0.000314246   -0.000075491   -0.000158613
  14   H   :   -0.000294489    0.000130415   -0.000128396
  15   O   :   -0.000279259   -0.000071225    0.000650100
  16   H   :   -0.000135723   -0.000058050    0.000497543
  17   H   :   -0.000258514   -0.000023050    0.000305416

Difference to translation invariance:
           :   -0.0000000000   -0.0000000000    0.0000000000

Difference to rotation invariance:
           :    0.0000000000   -0.0000000000    0.0000000000

Norm of the Dispersion gradient    ...    0.0021005069
RMS gradient                       ...    0.0002941298
MAX gradient                       ...    0.0006501002

------------------
CARTESIAN GRADIENT
------------------

   1   N   :    0.004882205    0.000281970    0.002895429
   2   C   :   -0.004697846   -0.000588948    0.000786792
   3   C   :    0.001889450    0.000765119   -0.000293048
   4   C   :   -0.001591583    0.000614144   -0.000187823
   5   C   :   -0.000422230    0.000769956   -0.000142489
   6   C   :    0.000007039    0.000365128    0.000022869
   7   C   :    0.000106380   -0.000371954    0.000009712
   8   H   :    0.000024691    0.000057475    0.000005808
   9   H   :   -0.000134798   -0.000073164   -0.000091446
  10   H   :    0.000121435   -0.000042997    0.000004964
  11   H   :   -0.000068824    0.000104685   -0.000027771
  12   H   :   -0.000033563    0.000014283   -0.000020609
  13   H   :   -0.000930736   -0.004641893   -0.001946156
  14   H   :    0.000361484    0.003008911   -0.000723266
  15   O   :   -0.000112817    0.001366500    0.001501742
  16   H   :    0.000257655   -0.000629710   -0.000334425
  17   H   :    0.000342059   -0.000999506   -0.001460285

Difference to translation invariance:
           :   -0.0000000000   -0.0000000000    0.0000000001

Difference to rotation invariance:
           :   -0.0001623686   -0.0000643043   -0.0002023978

Norm of the Cartesian gradient     ...    0.0103698608
RMS gradient                       ...    0.0014520710
MAX gradient                       ...    0.0048822048

-------
TIMINGS
-------

Total SCF gradient time     ....        1.168 sec

Densities                   ....       0.000 sec  (  0.0%)
One electron gradient       ....       0.013 sec  (  1.1%)
RI-J Coulomb gradient       ....       0.117 sec  ( 10.0%)
COSX gradient               ....       0.795 sec  ( 68.1%)
XC gradient                 ....       0.192 sec  ( 16.4%)

Maximum memory used throughout the entire SCFGRAD-calculation: 29.2 MB
[psid02:228155] 27 more processes have sent help message help-mpi-btl-openib.txt / ib port not selected
[psid02:228155] Set MCA parameter "orte_base_help_aggregate" to 0 to see all help / error messages
[psid02:228155] 27 more processes have sent help message help-mpi-btl-openib.txt / error in device init
------------------------------------------------------------------------------
                         ORCA GEOMETRY RELAXATION STEP
------------------------------------------------------------------------------

Reading the OPT-File                    .... done
Getting information on internals        .... done
Copying old internal coords+grads       .... done
Making the new internal coordinates     .... (2022 redundants) done
Validating the new internal coordinates .... (2022 redundants) done
Calculating the B-matrix                .... done
Calculating the G,G- and P matrices     .... done
Transforming gradient to internals      .... done
Projecting the internal gradient        .... done
Number of atoms                         ....  17
Number of internal coordinates          .... 105
Current Energy                          ....  -363.576846941 Eh
Current gradient norm                   ....     0.010369861 Eh/bohr
Maximum allowed component of the step   ....  0.300
Current trust radius                    ....  0.300
Evaluating the initial hessian          ....  (Almloef) done
Projecting the Hessian                  .... done
Forming the augmented Hessian           .... done
Diagonalizing the augmented Hessian     .... done
Last element of RFO vector              ....  0.999350320
Lowest eigenvalues of augmented Hessian:
 -0.000176778  0.009695475  0.024245225  0.025368516  0.025514265
Length of the computed step             ....  0.036064206
The final length of the internal step   ....  0.036064206
Converting the step to Cartesian space:
 Initial RMS(Int)=    0.0035195061
Transforming coordinates:
 Iter   0:  RMS(Cart)=    0.0057847023 RMS(Int)=    0.6131317550
done
Storing new coordinates                 .... done

                                .--------------------.
          ----------------------|Geometry convergence|-------------------------
          Item                value                   Tolerance       Converged
          ---------------------------------------------------------------------
          RMS gradient        0.0007320131            0.0001000000      NO
          MAX gradient        0.0037117389            0.0003000000      NO
          RMS step            0.0035195061            0.0020000000      NO
          MAX step            0.0176506877            0.0040000000      NO
          ........................................................
          Max(Bonds)      0.0093      Max(Angles)    0.33
          Max(Dihed)        0.55      Max(Improp)    0.00
          ---------------------------------------------------------------------

The optimization has not yet converged - more geometry cycles are needed


    ---------------------------------------------------------------------------
                         Redundant Internal Coordinates
                            (Angstroem and degrees)

        Definition                    Value    dE/dq     Step     New-Value
    ----------------------------------------------------------------------------
     1. B(C   1,N   0)                1.3977 -0.003709  0.0047    1.4024   
     2. B(C   2,C   1)                1.4064  0.001849 -0.0017    1.4048   
     3. B(C   3,C   1)                1.4050 -0.001652  0.0015    1.4065   
     4. B(C   4,C   2)                1.3952 -0.000484  0.0004    1.3956   
     5. B(C   5,C   3)                1.3949  0.000151 -0.0001    1.3948   
     6. B(C   6,C   5)                1.3984  0.000123 -0.0001    1.3984   
     7. B(C   6,C   4)                1.3979  0.000229 -0.0002    1.3977   
     8. B(H   7,C   2)                1.0940  0.000040 -0.0001    1.0939   
     9. B(H   8,C   3)                1.0930  0.000119 -0.0002    1.0928   
    10. B(H   9,C   4)                1.0931  0.000030 -0.0000    1.0930   
    11. B(H  10,C   5)                1.0930 -0.000129  0.0002    1.0932   
    12. B(H  11,C   6)                1.0920 -0.000036  0.0001    1.0920   
    13. B(H  12,N   0)                1.0222  0.003712 -0.0060    1.0162   
    14. B(H  13,N   0)                1.0188  0.002664 -0.0034    1.0154   
    15. B(H  15,O  14)                0.9662  0.000276 -0.0003    0.9659   
    16. B(H  16,C   1)                2.4956 -0.000918  0.0093    2.5049   
    17. B(H  16,H  12)                2.4381  0.000964 -0.0012    2.4368   
    18. B(H  16,N   0)                2.0335 -0.000446  0.0054    2.0389   
    19. B(H  16,O  14)                0.9736  0.000848 -0.0009    0.9727   
    20. A(C   1,N   0,H  12)          114.13 -0.000271    0.17    114.30   
    21. A(H  12,N   0,H  16)          100.59 -0.000477   -0.19    100.40   
    22. A(H  13,N   0,H  16)          123.00 -0.000062    0.11    123.11   
    23. A(H  12,N   0,H  13)          111.68  0.000873   -0.33    111.35   
    24. A(C   1,N   0,H  13)          114.27 -0.000867    0.20    114.46   
    25. A(C   1,N   0,H  16)           91.40  0.000745    0.11     91.51   
    26. A(N   0,C   1,C   2)          121.50  0.000464   -0.20    121.30   
    27. A(C   2,C   1,H  16)          122.92  0.000298   -0.03    122.90   
    28. A(N   0,C   1,C   3)          119.52 -0.000711    0.22    119.74   
    29. A(C   3,C   1,H  16)           89.79 -0.000545    0.02     89.81   
[...]
      px      :     0.949570
      py      :     1.086756
      dz2     :     0.011325  d :     0.141048
      dxz     :     0.030508
      dyz     :     0.014414
      dx2y2   :     0.047230
      dxy     :     0.037571

  2 C s       :     2.860723  s :     2.860723
      pz      :     1.032985  p :     3.115901
      px      :     1.056321
      py      :     1.026595
      dz2     :     0.006585  d :     0.087407
      dxz     :     0.013428
      dyz     :     0.007228
      dx2y2   :     0.026998
      dxy     :     0.033167

  3 C s       :     2.862909  s :     2.862909
      pz      :     1.023830  p :     3.114435
      px      :     1.056295
      py      :     1.034310
      dz2     :     0.006357  d :     0.086626
      dxz     :     0.012928
      dyz     :     0.008081
      dx2y2   :     0.026763
      dxy     :     0.032497

  4 C s       :     2.861628  s :     2.861628
      pz      :     0.967015  p :     3.063279
      px      :     1.055757
      py      :     1.040507
      dz2     :     0.006442  d :     0.091742
      dxz     :     0.014544
      dyz     :     0.008883
      dx2y2   :     0.029578
      dxy     :     0.032296

  5 C s       :     2.861991  s :     2.861991
      pz      :     0.966109  p :     3.062758
      px      :     1.061617
      py      :     1.035032
      dz2     :     0.006686  d :     0.091964
      dxz     :     0.015604
      dyz     :     0.007642
      dx2y2   :     0.030328
      dxy     :     0.031704

  6 C s       :     2.859839  s :     2.859839
      pz      :     1.011492  p :     3.102389
      px      :     1.033608
      py      :     1.057288
      dz2     :     0.007637  d :     0.089388
      dxz     :     0.006461
      dyz     :     0.013849
      dx2y2   :     0.032832
      dxy     :     0.028609

  7 H s       :     0.911485  s :     0.911485
      pz      :     0.017397  p :     0.067546
      px      :     0.016150
      py      :     0.033999

  8 H s       :     0.908148  s :     0.908148
      pz      :     0.018705  p :     0.071206
      px      :     0.021516
      py      :     0.030985

  9 H s       :     0.907000  s :     0.907000
      pz      :     0.015868  p :     0.066038
      px      :     0.019751
      py      :     0.030419

 10 H s       :     0.906574  s :     0.906574
      pz      :     0.015511  p :     0.066034
      px      :     0.016636
      py      :     0.033887

 11 H s       :     0.908272  s :     0.908272
      pz      :     0.014863  p :     0.067157
      px      :     0.040976
      py      :     0.011318

 12 H s       :     0.800389  s :     0.800389
      pz      :     0.041085  p :     0.121582
      px      :     0.029767
      py      :     0.050731

 13 H s       :     0.809027  s :     0.809027
      pz      :     0.046244  p :     0.119726
      px      :     0.025519
      py      :     0.047963

 14 O s       :     3.435354  s :     3.435354
      pz      :     1.580572  p :     4.700981
      px      :     1.515583
      py      :     1.604825
      dz2     :     0.000616  d :     0.018962
      dxz     :     0.003957
      dyz     :     0.005888
      dx2y2   :     0.007647
      dxy     :     0.000853

 15 H s       :     0.751597  s :     0.751597
      pz      :     0.053299  p :     0.176985
      px      :     0.081928
      py      :     0.041759

 16 H s       :     0.763365  s :     0.763365
      pz      :     0.071293  p :     0.192884
      px      :     0.035551
      py      :     0.086039



                      *****************************
                      * MAYER POPULATION ANALYSIS *
                      *****************************

  NA   - Mulliken gross atomic population
  ZA   - Total nuclear charge
  QA   - Mulliken gross atomic charge
  VA   - Mayer's total valence
  BVA  - Mayer's bonded valence
  FA   - Mayer's free valence

  ATOM       NA         ZA         QA         VA         BVA        FA
  0 N      7.1121     7.0000    -0.1121     3.1746     3.1746     0.0000
  1 C      5.9559     6.0000     0.0441     4.0248     4.0248     0.0000
  2 C      6.0157     6.0000    -0.0157     3.8128     3.8128     0.0000
  3 C      6.0446     6.0000    -0.0446     3.8362     3.8362     0.0000
  4 C      5.9866     6.0000     0.0134     3.8656     3.8656     0.0000
  5 C      5.9859     6.0000     0.0141     3.8477     3.8477    -0.0000
  6 C      5.9805     6.0000     0.0195     3.8143     3.8143     0.0000
  7 H      1.0437     1.0000    -0.0437     0.9854     0.9854    -0.0000
  8 H      1.0342     1.0000    -0.0342     1.0389     1.0389     0.0000
  9 H      1.0184     1.0000    -0.0184     0.9771     0.9771     0.0000
 10 H      1.0167     1.0000    -0.0167     0.9775     0.9775     0.0000
 11 H      1.0221     1.0000    -0.0221     0.9779     0.9779     0.0000
 12 H      0.8692     1.0000     0.1308     0.9916     0.9916     0.0000
 13 H      0.8932     1.0000     0.1068     1.0021     1.0021    -0.0000
 14 O      8.3077     8.0000    -0.3077     2.0616     2.0616     0.0000
 15 H      0.8496     1.0000     0.1504     1.0167     1.0167     0.0000
 16 H      0.8637     1.0000     0.1363     1.0810     1.0810     0.0000

  Mayer bond orders larger than 0.100000
B(  0-N ,  1-C ) :   1.1339 B(  0-N , 12-H ) :   0.9424 B(  0-N , 13-H ) :   0.9488 
B(  0-N , 16-H ) :   0.1076 B(  1-C ,  2-C ) :   1.3605 B(  1-C ,  3-C ) :   1.3578 
B(  2-C ,  4-C ) :   1.3868 B(  2-C ,  7-H ) :   0.9834 B(  3-C ,  5-C ) :   1.3871 
B(  3-C ,  8-H ) :   0.9791 B(  4-C ,  6-C ) :   1.3846 B(  4-C ,  9-H ) :   0.9793 
B(  5-C ,  6-C ) :   1.3707 B(  5-C , 10-H ) :   0.9815 B(  6-C , 11-H ) :   0.9878 
B( 14-O , 15-H ) :   1.0018 B( 14-O , 16-H ) :   0.9646 

-------
TIMINGS
-------

Total SCF time: 0 days 0 hours 0 min 2 sec 

Total time                  ....       2.471 sec
Sum of individual times     ....       2.363 sec  ( 95.6%)

SCF preparation             ....       0.826 sec  ( 33.4%)
Fock matrix formation       ....       1.222 sec  ( 49.4%)
  Startup                   ....       0.036 sec  (  3.0% of F)
  Split-RI-J                ....       0.087 sec  (  7.1% of F)
  Chain of spheres X        ....       0.712 sec  ( 58.2% of F)
  XC integration            ....       0.332 sec  ( 27.2% of F)
    XC Preparation          ....       0.000 sec  (  0.0% of XC)
    Basis function eval.    ....       0.038 sec  ( 11.3% of XC)
    Density eval.           ....       0.017 sec  (  5.0% of XC)
    XC-Functional eval.     ....       0.011 sec  (  3.2% of XC)
    XC-Potential eval.      ....       0.021 sec  (  6.3% of XC)
Diagonalization             ....       0.000 sec  (  0.0%)
Density matrix formation    ....       0.072 sec  (  2.9%)
Total Energy calculation    ....       0.024 sec  (  1.0%)
Population analysis         ....       0.132 sec  (  5.3%)
Orbital Transformation      ....       0.012 sec  (  0.5%)
Orbital Orthonormalization  ....       0.000 sec  (  0.0%)
DIIS solution               ....       0.022 sec  (  0.9%)
SOSCF solution              ....       0.053 sec  (  2.1%)
Finished LeanSCF after   2.6 sec

Maximum memory used throughout the entire LEANSCF-calculation: 20.3 MB
[psid02:245168] 27 more processes have sent help message help-mpi-btl-openib.txt / ib port not selected
[psid02:245168] Set MCA parameter "orte_base_help_aggregate" to 0 to see all help / error messages
[psid02:245168] 27 more processes have sent help message help-mpi-btl-openib.txt / error in device init


-------------------------------------------------------------------------------
                          DFT DISPERSION CORRECTION                            
                                                                               
                              DFTD3 V3.1  Rev 1                                
                          USING Becke-Johnson damping                          
-------------------------------------------------------------------------------
The B3LYP functional is recognized
Active option DFTDOPT                   ...         4   

molecular C6(AA) [au] = 2812.398368 


            DFT-D V3
 parameters
 s6 scaling factor         :     1.0000 
 a1 scaling factor         :     0.3981 
 s8 scaling factor         :     1.9889 
 a2 scaling factor         :     4.4211 
 ad hoc parameters k1-k3   :    16.0000     1.3333    -4.0000 

 Edisp/kcal,au: -16.857101364194  -0.026863498103 
 E6   /kcal   :  -8.006490417 
 E8   /kcal   :  -8.850610948 
 % E8         :  52.503753501 

-------------------------   ----------------
Dispersion correction           -0.026863498
-------------------------   ----------------


-------------------------   --------------------
FINAL SINGLE POINT ENERGY      -363.578117727894
-------------------------   --------------------

                                *** OPTIMIZATION RUN DONE ***

--------------------------------------------------------------------------
By default, for Open MPI 4.0 and later, infiniband ports on a device
are not used by default.  The intent is to use UCX for these devices.
You can override this policy by setting the btl_openib_allow_ib MCA parameter
to true.

  Local host:              psid02
  Local adapter:           mlx5_0
  Local port:              1

--------------------------------------------------------------------------
--------------------------------------------------------------------------
WARNING: There was an error initializing an OpenFabrics device.

  Local host:   psid02
  Local device: mlx5_0
--------------------------------------------------------------------------


           ************************************************************
           *        Program running with 28 parallel MPI-processes    *
           *              working on a common directory               *
           ************************************************************

------------------------------------------------------------------------------
                              ORCA PROPERTY CALCULATIONS
------------------------------------------------------------------------------

GBWName                                 ... aniline_water_2_OPT.gbw
Number of atoms                         ...     17
Number of basis functions               ...    157
Max core memory                         ...   4000 MB

Electric properties:
Dipole moment                           ... YES
Quadrupole moment                       ...  NO
Static polarizability (Dipole/Dipole)   ...  NO
Static polarizability (Dipole/Quad.)    ...  NO
Static polarizability (Quad./Quad.)     ...  NO
Static polarizability (Velocity)        ...  NO

Atomic electric properties:
Dipole moment                           ...  NO
Quadrupole moment                       ...  NO
Static polarizability                   ...  NO

Choice of electric origin               ... Center of mass
Position of electric origin             ...    -0.974949    -0.019341     0.923338

General magnetic properties:
Magnetizability                         ...  NO

EPR properties:
g-Tensor (aka g-matrix)                 ...  NO
Zero-Field splitting spin-orbit         ...  NO
Zero-field splitting spin-spin          ...  NO
Hyperfine couplings                     ...  NO (   0 nuclei)
Quadrupole couplings                    ...  NO (   0 nuclei)
Contact density                         ...  NO (   0 nuclei)

NMR properties:
Chemical shifts                         ...  NO (   0 nuclei)
Spin-rotation constants                 ...  NO (   0 nuclei)
Spin-spin couplings                     ...  NO (   0 nuclei,    0 pairs)

Choice of magnetic origin               ... GIAO
Position of magnetic origin             ...     0.000000     0.000000     0.000000

Properties with geometric perturbations:
SCF Hessian                             ...  NO
IR spectrum                             ...  NO
VCD spectrum                            ...  NO
X-ray spectroscopy properties:
SCF XES/XAS/RIXS spectra                ...  NO


-------------
DIPOLE MOMENT
-------------

Method             : SCF
Type of density    : Electron Density
Multiplicity       :   1
Irrep              :   0
Energy             :  -363.5512542297907430 Eh
Relativity type    : 
Basis              : AO
                                X                 Y                 Z
Electronic contribution:      1.518918044       0.547458429      -1.295775174
Nuclear contribution   :     -1.392442614       0.037165837       0.632231962
                        -----------------------------------------
Total Dipole Moment    :      0.126475430       0.584624266      -0.663543212
                        -----------------------------------------
Magnitude (a.u.)       :      0.893348287
Magnitude (Debye)      :      2.270710888



--------------------
Rotational spectrum 
--------------------
 
Rotational constants in cm-1:             0.113268             0.043609             0.034325 
Rotational constants in MHz :          3395.690437          1307.364258          1029.046913 

Dipole components along the rotational axes: 
x,y,z [a.u.] :     0.554415    -0.683574    -0.153042 
x,y,z [Debye]:     1.409210    -1.737507    -0.389003 

 

Dipole moment calculation done in   0.0 sec 

Maximum memory used throughout the entire PROP-calculation: 11.6 MB
[psid02:245259] 27 more processes have sent help message help-mpi-btl-openib.txt / ib port not selected
[psid02:245259] Set MCA parameter "orte_base_help_aggregate" to 0 to see all help / error messages
[psid02:245259] 27 more processes have sent help message help-mpi-btl-openib.txt / error in device init
--------------------------------------------------------------------------
By default, for Open MPI 4.0 and later, infiniband ports on a device
are not used by default.  The intent is to use UCX for these devices.
You can override this policy by setting the btl_openib_allow_ib MCA parameter
to true.

  Local host:              psid02
  Local adapter:           mlx5_0
  Local port:              1

--------------------------------------------------------------------------
--------------------------------------------------------------------------
WARNING: There was an error initializing an OpenFabrics device.

  Local host:   psid02
  Local device: mlx5_0
--------------------------------------------------------------------------
[psid02:245347] [[56923,0],0] ORTE_ERROR_LOG: Data unpack would read past end of buffer in file util/show_help.c at line 501
[psid02:245347] 26 more processes have sent help message help-mpi-btl-openib.txt / ib port not selected
[psid02:245347] Set MCA parameter "orte_base_help_aggregate" to 0 to see all help / error messages
[psid02:245347] 27 more processes have sent help message help-mpi-btl-openib.txt / error in device init

--------------------------------
SUGGESTED CITATIONS FOR THIS RUN
--------------------------------

Below you find a list of papers that are relevant to this ORCA run
We neither can nor want to force you to cite these papers, but we appreciate if you do
You receive ORCA, which is the product of decades of hard work by many enthusiastic individuals, for free
The only thing we kindly ask in return is that you cite our papers,
We deeply appreciate it, if you show your appreciation for ORCA by not just citing the generic ORCA reference.

Please note that relegating all ORCA citations to the supporting information does *not* help us.
SI sections are not indexed - citations you put there will not count into any citation statistics
But we need these citations in order to attract the funding resources that allow us to do what we are doing

Therefore, if you are a happy ORCA user, please consider citing a few of the papers listed below in the main body of your paper

In addition to the list printed below, the program has created the file aniline_water_2_OPT.bibtex that contains the list in bibtex format
You can import this file easily into all common literature databanks and citation aid programs


List of essential papers. We consider these as the minimum necessary citations

  1. Neese,F.
     Software update: the ORCA program system, version 5.0
     WIRES Comput. Molec. Sci., 2022 12(1)e1606
     doi.org/10.1002/wcms.1606

List of papers to cite with high priority. The work reported in these papers was absolutely
necessary for this run to complete.
Our perspective: the developers of density functionals and basis sets usually get cited in chemistry papers
Good! But without the algorithms to do something with them, the functionals or basis sets would not do anything.
Hence, in our opinion, the algorithm design and method developments papers are equally worthy of getting cited

  1. Neese,F.
     An improvement of the resolution of the identity approximation for the formation of the Coulomb matrix
     J. Comp. Chem., 2003 24(14)1740-1747
     doi.org/10.1002/jcc.10318
  2. Neese,F.; Wennmohs,F.; Hansen,A.; Becker,U.
     Efficient, approximate and parallel Hartree-Fock and hybrid DFT calculations. A 'chain-of-spheres' algorithm for the Hartree-Fock exchange
     Chem. Phys., 2009 356(1-3)98-109
     doi.org/10.1016/j.chemphys.2008.10.036
  3. Helmich-Paris,B.; de Souza,B.; Neese,F.; Izsák,R.
     An improved chain of spheres for exchange algorithm
     J. Chem. Phys., 2021 155 104109
     doi.org/doi: 10.1063/5.0058766.
  4. Neese,F.
     The SHARK Integral Generation and Digestion System
     J. Comp. Chem., 2022  1-16
     doi.org/10.1002/jcc.26942
  5. Grimme,S.; Antony,J.; Ehrlich,S.; Krieg,H.
     A consistent and accurate ab initio parametrization of density functional dispersion correction (DFT-D) for the 94 elements H-Pu
     J. Chem. Phys., 2010 132 154104
     doi.org/10.1063/1.3382344
  6. Grimme,S.; Ehrlich,S.; Goerigk,L.
     Effect of the damping function in dispersion corrected density functional theory
     J. Comput. Chem., 2011 32(7)1456-1465
     doi.org/10.1002/jcc.21759

List of suggested additional citations. These are papers that are important in the 'surrounding' of 
of this run, or papers that preceded the highly important papers. If you like your results we are grateful for a citation.

  1. Izsak,R.; Neese,F.
     An overlap fitted chain of spheres exchange method
     J. Chem. Phys., 2011 135 144105
     doi.org/10.1063/1.3646921
  2. Izsak,R.; Hansen,A.; Neese,F.
     The resolution of identity and chain of spheres approximations for the LPNO-CCSD singles Fock term
     Molec. Phys., 2012 110 2413-2417
     doi.org/10.1080/00268976.2012.687466
  3. Neese,F.
     The ORCA program system
     WIRES Comput. Molec. Sci., 2012 2(1)73-78
     doi.org/10.1002/wcms.81
  4. Izsak,R.; Neese,F.; Klopper,W.
     Robust fitting techniques in the chain of spheres approximation to the Fock exchange: The role of the complementary space
     J. Chem. Phys., 2013 139 
     doi.org/10.1063/1.4819264
  5. Neese,F.
     Software update: the ORCA program system, version 4.0
     WIRES Comput. Molec. Sci., 2018 8(1)1-6
     doi.org/10.1002/wcms.1327
  6. Neese,F.; Wennmohs,F.; Becker,U.; Riplinger,C.
     The ORCA quantum chemistry program package
     J. Chem. Phys., 2020 152 Art. No. L224108
     doi.org/10.1063/5.0004608

List of optional additional citations

  1. Neese,F.
     Approximate second-order SCF convergence for spin unrestricted wavefunctions
     Chem. Phys. Lett., 2000 325(1-3)93-98
     doi.org/10.1016/s0009-2614(00)00662-x

Timings for individual modules:

Sum of individual times          ...      307.136 sec (=   5.119 min)
Startup calculation              ...       60.748 sec (=   1.012 min)  19.8 %
SCF iterations                   ...      168.052 sec (=   2.801 min)  54.7 %
Property calculations            ...        0.863 sec (=   0.014 min)   0.3 %
SCF Gradient evaluation          ...       77.075 sec (=   1.285 min)  25.1 %
Geometry relaxation              ...        0.398 sec (=   0.007 min)   0.1 %
                             ****ORCA TERMINATED NORMALLY****
TOTAL RUN TIME: 0 days 0 hours 6 minutes 1 seconds 238 msec
