
                                 *****************
                                 * O   R   C   A *
                                 *****************

                                            #,                                       
                                            ###                                      
                                            ####                                     
                                            #####                                    
                                            ######                                   
                                           ########,                                 
                                     ,,################,,,,,                         
                               ,,#################################,,                 
                          ,,##########################################,,             
                       ,#########################################, ''#####,          
                    ,#############################################,,   '####,        
                  ,##################################################,,,,####,       
                ,###########''''           ''''###############################       
              ,#####''   ,,,,##########,,,,          '''####'''          '####       
            ,##' ,,,,###########################,,,                        '##       
           ' ,,###''''                  '''############,,,                           
         ,,##''                                '''############,,,,        ,,,,,,###''
      ,#''                                            '''#######################'''  
     '                                                          ''''####''''         
             ,#######,   #######,   ,#######,      ##                                
            ,#'     '#,  ##    ##  ,#'     '#,    #''#        ,####,   ,####,        
            ##       ##  ##   ,#'  ##            #'  '#       #'       #'  '#        
            ##       ##  #######   ##           ,######,      #####,   #    #        
            '#,     ,#'  ##    ##  '#,     ,#' ,#      #,     #,   #   #,  ,#        
             '#######'   ##     ##  '#######'  #'      '#     '####' # '####'        



                #########################################################
                #                        -***-                          #
                #          Department of theory and spectroscopy        #
                #                                                       #
                #                      Frank Neese                      #
                #                                                       #
                #     Directorship, Architecture, Infrastructure        #
                #                    SHARK, DRIVERS                     #
                #        Core code/Algorithms in most modules           #
                #                                                       #
                #        Max Planck Institute fuer Kohlenforschung      #
                #                Kaiser Wilhelm Platz 1                 #
                #                 D-45470 Muelheim/Ruhr                 #
                #                      Germany                          #
                #                                                       #
                #                  All rights reserved                  #
                #                        -***-                          #
                #########################################################


                         Program Version 6.0.1  -  RELEASE   -


 With contributions from (in alphabetic order):
[Max-Planck-Institut fuer Kohlenforschung]                               
  Daniel Aravena         : Magnetic Suceptibility                        
  Michael Atanasov       : Ab Initio Ligand Field Theory (pilot matlab implementation)
  Alexander A. Auer      : GIAO ZORA, VPT2 properties, NMR spectrum      
  Ute Becker             : All parallelization in ORCA, NUMFREQ, NUMCALC 
  Giovanni Bistoni       : ED, misc. LED, open-shell LED, HFLD           
  Martin Brehm           : Molecular dynamics                            
  Dmytro Bykov           : pre 5.0 version of the SCF Hessian            
  Marcos Casanova-Páez   : Triplet and SCS-CIS(D). UHF-(DLPNO)-IP/EA/STEOM-CCSD. UHF-CVS-IP/STEOM-CCSD   
  Vijay G. Chilkuri      : MRCI spin determinant printing, contributions to CSF-ICE 
  Pauline Colinet        : FMM embedding                                 
  Dipayan Datta          : RHF DLPNO-CCSD density                        
  Achintya Kumar Dutta   : EOM-CC, STEOM-CC                              
  Nicolas Foglia         : Exact transition moments, OPA infrastructure, MCD improvements    
  Dmitry Ganyushin       : Spin-Orbit,Spin-Spin,Magnetic field MRCI      
  Miquel Garcia-Rates    : C-PCM and meta-GGA Hessian, CCSD/C-PCM, Gaussian charge scheme 
  Tiago L. C. Gouveia    : GS-ROHF, GS-ROCIS                             
  Yang Guo               : DLPNO-NEVPT2, F12-NEVPT2, CIM, IAO-localization        
  Andreas Hansen         : Spin unrestricted coupled pair/coupled cluster methods 
  Ingolf Harden          : AUTO-CI MPn and infrastructure                
  Benjamin Helmich-Paris : MC-RPA, TRAH-(SCF,CASSCF), AVAS, COSX integrals, SCF dyn. polar. 
  Lee Huntington         : MR-EOM, pCC                                   
  Robert Izsak           : Overlap fitted RIJCOSX, COSX-SCS-MP3, EOM     
  Riya Kayal             : Wick's Theorem for AUTO-CI, AUTO-CI UHF-CCSDT 
  Emily Kempfer          : AUTO-CI, RHF CISDT and CCSDT                  
  Christian Kollmar      : KDIIS, OOCD, Brueckner-CCSD(T), CCSD density, CASPT2, CASPT2-K, improved NEVPT2 
  Axel Koslowski         : Symmetry handling                             
  Simone Kossmann        : meta-GGA functionals, TD-DFT gradient, OOMP2, (MP2 Hessian; deprecated post 5.0) 
  Lucas Lang             : DCDCAS                                        
  Marvin Lechner         : AUTO-CI (C++ implementation), FIC-MRCC        
  Spencer Leger          : CASSCF response                               
  Dagmar Lenk            : GEPOL surface, SMD, ORCA-2-JSON               
  Dimitrios Liakos       : Extrapolation schemes; Compound Job, initial MDCI parallelization 
  Dimitrios Manganas     : Further ROCIS development; embedding schemes. LFT, Crystal Embedding 
  Dimitrios Pantazis     : SARC Basis sets                               
  Anastasios Papadopoulos: AUTO-CI, single reference methods and gradients 
  Taras Petrenko         : pre 6.0 DFT Hessian and TD-DFT gradient, (ASA, deprecated), ECA, 1-Electron XAS/XES, NRVS 
  Peter Pinski           : DLPNO-MP2, DLPNO-MP2 Gradient                 
  Christoph Reimann      : Effective Core Potentials                     
  Marius Retegan         : Local ZFS, SOC                                
  Christoph Riplinger    : Optimizer, TS searches, QM/MM, DLPNO-CCSD(T), (RO)-DLPNO pert. Triples 
  Michael Roemelt        : Original ROCIS implementation                 
  Masaaki Saitow         : Open-shell DLPNO-CCSD energy and density      
  Barbara Sandhoefer     : DKH picture change effects                    
  Kantharuban Sivalingam : CASSCF convergence/infrastructure, NEVPT2 and variants, FIC-MRCI 
  Bernardo de Souza      : ESD, SOC TD-DFT                               
  Georgi L. Stoychev     : AutoAux, RI-MP2 NMR, DLPNO-MP2 response, X2C  
  Van Anh Tran           : RI-MP2 g-tensors                              
  Willem Van den Heuvel  : Paramagnetic NMR                              
  Zikuan Wang            : NOTCH, Electric field optimization            
  Frank Wennmohs         : Technical directorship and infrastructure     
  Hang Xu                : AUTO-CI-Response properties                   
                                                                         
[FACCTs GmbH]                                                            
  Markus Bursch, Miquel Garcia-Rates, Christoph Riplinger, Bernardo de Souza, Georgi L. Stoychev 
                                                                 
  APM, Basis sets (HGBS, AHGBS, def-TZVP (Ac-Lr), def2-XVPD (La-Lu)), CI-OPT, improved COSX, DLPNO-Multilevel,           
  DOCKER, DRACO, updates on ESD, GOAT, IRC, LR-CPCM, MBIS, meta-GGA TD-DFT gradient, ML-optimized integration grids, 
  MM, NACMEs, nearIR, NEB, NEB-TS, NL-DFT gradient (VV10), 2- and 3-layer-ONIOM, interface openCOSMO-RS, QMMM,   
  Crystal-QMMM, SF, symmetry and pop. for TD-DFT, r2SCAN hybrids, SOLVATOR                                   
                                                                         
[Other institutions]                                                     
  V. Asgeirsson          : NEB                                           
  Christoph Bannwarth    : sTDA-DFT, sTD-DFT, PBEh-3c, B97-3c, D3        
  Sebastian Ehlert       : rSCAN, r2SCAN, r2SCAN-3c, D4, dhf basis sets  
  Marvin Friede          : D4 for Fr, Ra, Ac-Lr                          
  Lars Goerigk           : TD-DFT with DH, B97 family of functionals     
  Stefan Grimme          : VdW corrections, initial TS optimization, DFT functionals, gCP, sTDA/sTD-DF 
  Waldemar Hujo          : DFT-NL                                        
  H. Jonsson             : NEB                                           
  Holger Kruse           : gCP                                           
  Marcel Mueller         : wB97X-3c, vDZP basis set                      
  Hagen Neugebauer       : wr2SCAN                                       
  Tobias Risthaus        : range-separated hybrid DFT                    
  Lukas Wittmann         : regularized MP2, r2SCAN double-hybrids, wr2SCAN        
                                                                         
We gratefully acknowledge several colleagues who have allowed us to      
interface, adapt or use parts of their codes:                            
  Ed Valeev, F. Pavosevic, A. Kumar             : LibInt (2-el integral package), F12 methods 
  Garnet Chan, S. Sharma, J. Yang, R. Olivares  : DMRG                   
  Ulf Ekstrom                                   : XCFun DFT Library      
  Mihaly Kallay                                 : mrcc  (arbitrary order and MRCC methods)
  Frank Weinhold                                : gennbo (NPA and NBO analysis)           
  Simon Mueller                                 : openCOSMO-RS                            
  Christopher J. Cramer and Donald G. Truhlar   : smd solvation model                     
  S Lehtola, MJT Oliveira, MAL Marques          : LibXC Library                           
  Liviu Ungur et al                             : ANISO software                          


 Your calculation uses the libint2 library for the computation of 2-el integrals
 For citations please refer to: http://libint.valeyev.net

 Your ORCA version has been built with support for libXC version: 6.2.2
 For citations please refer to: https://libxc.gitlab.io

 This ORCA versions uses:
   CBLAS   interface :  Fast vector & matrix operations
   LAPACKE interface :  Fast linear algebra routines
   SCALAPACK package :  Parallel linear algebra routines
   Shared memory     :  Shared parallel matrices
   BLAS/LAPACK       :  OpenBLAS 0.3.27  USE64BITINT DYNAMIC_ARCH NO_AFFINITY SkylakeX SINGLE_THREADED
        Core in use  :  SkylakeX
   Copyright (c) 2011-2014, The OpenBLAS Project


NOTE: MaxCore=4000 MB was set to SCF,MP2,MDCI,CIPSI,MRCI and CIS
      => If you want to overwrite this, your respective input block should be placed after the MaxCore statement
Your calculation utilizes the atom-pairwise dispersion correction
with the Becke-Johnson damping scheme (D3BJ)


Warning: RI is on but no J-basis has been assigned. Assigning Def2/J (nothing to worry about!)
================================================================================

----- Orbital basis set information -----
Your calculation utilizes the basis: def2-SVP
   F. Weigend and R. Ahlrichs, Phys. Chem. Chem. Phys. 7, 3297 (2005).

----- AuxJ basis set information -----
Your calculation utilizes the auxiliary basis: def2/J
   F. Weigend, Phys. Chem. Chem. Phys. 8, 1057 (2006).

================================================================================
                                        WARNINGS
                       Please study these warnings very carefully!
================================================================================


WARNING: Geometry Optimization
  ===> : Switching off AutoStart
         For restart on a previous wavefunction, please use MOREAD

================================================================================
                                       INPUT FILE
================================================================================
NAME = p_toluidine_water_2_OPT.inp
|  1> ! B3LYP def2-SVP OPT TightSCF D3BJ
|  2> 
|  3> 
|  4> %maxcore 4000
|  5> 
|  6> %pal
|  7> nprocs 28
|  8> end
|  9> 
| 10> * xyz 0 1
| 11>   N          -2.87104173596186      0.34857161574013      0.18080104635216
| 12>   C           1.36949827470330      0.11293059212615      0.05488663566935
| 13>   C          -1.46568417513602      0.27774106977076      0.09584671959079
| 14>   C           0.57865548424361     -0.99620165146379      0.39778291187446
| 15>   C           0.70537400634702      1.30692313669075     -0.25315097696278
| 16>   C          -0.81173518835766     -0.92191239023182      0.42790035495026
| 17>   C          -0.68886963901334      1.39383055201072     -0.23922483550433
| 18>   C           2.87333781217269      0.01030682736669      0.00558663765204
| 19>   H           1.06091884966825     -1.94243057563754      0.66063236389993
| 20>   H           1.28896540597753      2.19348899624604     -0.51730103720657
| 21>   H          -1.40682570503648     -1.77948566243095      0.75014858750716
| 22>   H          -1.17916052157378      2.33869347005666     -0.49132086207536
| 23>   H           3.34612015894116      1.00444593854340      0.00537816027253
| 24>   H           3.26852734738357     -0.55240210197942      0.86699403753801
| 25>   H           3.21162456320220     -0.51554098915304     -0.90505207998530
| 26>   H          -3.27381420994963      1.20281346704162     -0.19254168826471
| 27>   H          -3.33748681918195     -0.46114431454625     -0.21807084542551
| 28>   O          -3.18038802865458     -1.12082153650020      2.66926340774017
| 29>   H          -2.29636110730763     -0.99520658999832      3.03947417045131
| 30>   H          -3.19121753166639     -0.48584579365159      1.92902643692635                
| 31> *
| 32> 
| 33>                          ****END OF INPUT****
================================================================================

                       *****************************
                       * Geometry Optimization Run *
                       *****************************

Geometry optimization settings:
Update method            Update   .... BFGS
Choice of coordinates    CoordSys .... (2022) Redundant Internals
Initial Hessian          InHess   .... Almloef's Model
Max. no of cycles        MaxIter  .... 60

Convergence Tolerances:
Energy Change            TolE     ....  5.0000e-06 Eh
Max. Gradient            TolMAXG  ....  3.0000e-04 Eh/bohr
RMS Gradient             TolRMSG  ....  1.0000e-04 Eh/bohr
Max. Displacement        TolMAXD  ....  4.0000e-03 bohr
RMS Displacement         TolRMSD  ....  2.0000e-03 bohr
Strict Convergence                .... False

------------------------------------------------------------------------------
                        ORCA OPTIMIZATION COORDINATE SETUP
------------------------------------------------------------------------------

The optimization will be done in redundant internal coordinates (2022)
Making redundant internal coordinates   ...  (2022 redundants) done
Evaluating the initial hessian          ...  (Almloef) done
Evaluating the coordinates              ...  done
Calculating the B-matrix                .... done
Calculating the G-matrix                .... done
Diagonalizing the G-matrix              .... done
The first mode is                       ....   59
The number of degrees of freedom        ....   54

    -----------------------------------------------------------------
                    Redundant Internal Coordinates


    -----------------------------------------------------------------
         Definition                    Initial Value    Approx d2E/dq
    -----------------------------------------------------------------
      1. B(C   2,N   0)                  1.4097         0.520523   
      2. B(C   3,C   1)                  1.4047         0.591949   
      3. B(C   4,C   1)                  1.4006         0.601024   
      4. B(C   5,C   3)                  1.3927         0.618631   
      5. B(C   5,C   2)                  1.4061         0.588945   
      6. B(C   6,C   4)                  1.3970         0.608892   
      7. B(C   6,C   2)                  1.4005         0.601179   
      8. B(C   7,C   1)                  1.5081         0.404808   
      9. B(H   8,C   3)                  1.0941         0.354739   
     10. B(H   9,C   4)                  1.0938         0.355135   
     11. B(H  10,C   5)                  1.0924         0.356897   
     12. B(H  11,C   6)                  1.0939         0.354926   
     13. B(H  12,C   7)                  1.1008         0.346049   
     14. B(H  13,C   7)                  1.1022         0.344321   
     15. B(H  14,C   7)                  1.1046         0.341252   
     16. B(H  15,N   0)                  1.0155         0.423977   
     17. B(H  16,N   0)                  1.0160         0.423234   
     18. B(H  18,O  17)                  0.9666         0.507479   
     19. B(H  19,H  10)                  2.4995         0.000389   
     20. B(H  19,H  16)                  2.1522         0.001392   
     21. B(H  19,N   0)                  1.9634         0.013033   
     22. B(H  19,O  17)                  0.9753         0.491489   
     23. A(C   2,N   0,H  16)          113.2018         0.346907   
     24. A(H  15,N   0,H  16)          110.1183         0.301205   
     25. A(C   2,N   0,H  15)          114.5503         0.347010   
     26. A(C   2,N   0,H  19)          101.2373         0.206314   
     27. A(H  16,N   0,H  19)           86.3307         0.185487   
     28. A(H  15,N   0,H  19)          128.3260         0.185525   
     29. A(C   4,C   1,C   7)          121.5776         0.400130   
     30. A(C   3,C   1,C   4)          117.3777         0.428075   
     31. A(C   3,C   1,C   7)          121.0404         0.399060   
     32. A(N   0,C   2,C   5)          119.4911         0.414141   
     33. A(N   0,C   2,C   6)          121.8259         0.415658   
     34. A(C   5,C   2,C   6)          118.5848         0.427704   
     35. A(C   1,C   3,C   5)          121.6834         0.430298   
     36. A(C   5,C   3,H   8)          118.7507         0.351883   
     37. A(C   1,C   3,H   8)          119.5618         0.349273   
     38. A(C   1,C   4,C   6)          121.6066         0.430248   
     39. A(C   1,C   4,H   9)          119.4140         0.350236   
     40. A(C   6,C   4,H   9)          118.9783         0.351007   
     41. A(C   2,C   5,H  10)          119.0829         0.349330   
     42. A(C   2,C   5,C   3)          120.3126         0.429905   
     43. A(C   3,C   5,H  10)          120.5534         0.352244   
     44. A(C   4,C   6,H  11)          119.9162         0.350972   
     45. A(C   2,C   6,H  11)          119.6608         0.350217   
     46. A(C   2,C   6,C   4)          120.4230         0.430268   
     47. A(H  13,C   7,H  14)          106.9446         0.286386   
     48. A(H  12,C   7,H  14)          107.3507         0.286610   
     49. A(C   1,C   7,H  14)          111.3898         0.325736   
     50. A(H  12,C   7,H  13)          107.8913         0.287011   
     51. A(C   1,C   7,H  13)          111.5132         0.326216   
     52. A(C   1,C   7,H  12)          111.5188         0.326485   
     53. A(C   5,H  10,H  19)           96.9918         0.123319   
     54. A(N   0,H  16,H  19)           65.5625         0.136054   
     55. A(H  18,O  17,H  19)          102.4878         0.317625   
     56. A(N   0,H  19,H  10)           71.5536         0.105036   
     57. A(H  10,H  19,O  17)           90.7497         0.125467   
     58. A(N   0,H  19,H  16)           28.1068         0.110404   
     59. A(H  16,H  19,O  17)          139.9412         0.137674   
     60. A(H  10,H  19,H  16)           65.4132         0.096820   
     61. A(N   0,H  19,O  17)          161.9236         0.188808   
     62. D(C   6,C   2,N   0,H  16)    138.8535         0.023318   
     63. D(C   5,C   2,N   0,H  16)    -44.8017         0.023318   
     64. D(C   5,C   2,N   0,H  15)   -172.1902         0.023318   
     65. D(C   6,C   2,N   0,H  15)     11.4649         0.023318   
     66. D(C   5,C   2,N   0,H  19)     46.0104         0.023318   
     67. D(C   5,C   3,C   1,C   4)      0.2373         0.024122   
     68. D(H   8,C   3,C   1,C   4)   -179.0177         0.024122   
     69. D(C   5,C   3,C   1,C   7)   -179.0181         0.024122   
     70. D(H   8,C   3,C   1,C   7)      1.7268         0.024122   
     71. D(H   9,C   4,C   1,C   7)     -1.2106         0.024907   
     72. D(H   9,C   4,C   1,C   3)    179.5382         0.024907   
     73. D(C   6,C   4,C   1,C   7)    178.4213         0.024907   
     74. D(C   6,C   4,C   1,C   3)     -0.8299         0.024907   
     75. D(C   3,C   5,C   2,C   6)     -1.1541         0.023865   
     76. D(H  10,C   5,C   3,H   8)      2.6437         0.026475   
     77. D(H  10,C   5,C   3,C   1)   -176.6172         0.026475   
     78. D(C   2,C   5,C   3,H   8)   -179.9818         0.026475   
     79. D(C   2,C   5,C   3,C   1)      0.7573         0.026475   
     80. D(H  10,C   5,C   2,C   6)    176.2587         0.023865   
     81. D(H  10,C   5,C   2,N   0)     -0.2048         0.023865   
     82. D(C   3,C   5,C   2,N   0)   -177.6176         0.023865   
     83. D(H  11,C   6,C   4,H   9)      0.0635         0.025600   
     84. D(H  11,C   6,C   4,C   1)   -179.5700         0.025600   
     85. D(C   2,C   6,C   4,H   9)   -179.9370         0.025600   
     86. D(C   2,C   6,C   4,C   1)      0.4296         0.025600   
     87. D(H  11,C   6,C   2,N   0)     -3.0496         0.024920   
     88. D(C   4,C   6,C   2,C   5)      0.5740         0.024920   
     89. D(C   4,C   6,C   2,N   0)    176.9509         0.024920   
     90. D(H  11,C   6,C   2,C   5)   -179.4265         0.024920   
     91. D(H  12,C   7,C   1,C   4)     16.8924         0.012149   
     92. D(H  12,C   7,C   1,C   3)   -163.8837         0.012149   
     93. D(H  14,C   7,C   1,C   3)     76.2012         0.012149   
     94. D(H  13,C   7,C   1,C   4)    137.5814         0.012149   
     95. D(H  13,C   7,C   1,C   3)    -43.1946         0.012149   
     96. D(H  19,H  10,C   5,C   3)    143.6758         0.107273   
     97. D(H  19,H  10,C   5,C   2)    -33.7306         0.107273   
     98. D(H  19,H  16,N   0,H  15)   -129.6650         0.226661   
     99. D(H  19,H  16,N   0,C   2)    100.6592         0.226661   
    100. D(H  10,H  19,O  17,H  18)     65.3067         0.331648   
    101. D(H  16,H  19,O  17,H  18)    116.1830         0.331648   
    102. D(N   0,H  19,O  17,H  18)     76.8530         0.331648   
    103. D(H  10,H  19,H  16,N   0)    -96.7815         0.001519   
    104. D(O  17,H  19,H  16,N   0)   -155.3281         0.001519   
    105. D(H  16,H  19,H  10,C   5)     76.1785         0.001502   
    106. D(N   0,H  19,H  10,C   5)     46.6301         0.001502   
    107. D(O  17,H  19,H  10,C   5)   -137.1238         0.001502   
    108. D(H  10,H  19,N   0,C   2)    -40.7865         0.001616   
    109. D(H  16,H  19,N   0,H  15)    112.8708         0.001616   
    110. D(H  16,H  19,N   0,C   2)   -112.9393         0.001616   
    111. D(O  17,H  19,N   0,H  16)     59.9729         0.001616   
    112. D(O  17,H  19,N   0,H  15)    172.8437         0.001616   
    113. D(O  17,H  19,N   0,C   2)    -52.9665         0.001616   
    -----------------------------------------------------------------

Number of atoms                         .... 20
Number of degrees of freedom            .... 113


         *************************************************************
         *                GEOMETRY OPTIMIZATION CYCLE   1            *
         *************************************************************
---------------------------------
CARTESIAN COORDINATES (ANGSTROEM)
---------------------------------
  N     -2.871042    0.348572    0.180801
  C      1.369498    0.112931    0.054887
  C     -1.465684    0.277741    0.095847
  C      0.578655   -0.996202    0.397783
  C      0.705374    1.306923   -0.253151
  C     -0.811735   -0.921912    0.427900
  C     -0.688870    1.393831   -0.239225
  C      2.873338    0.010307    0.005587
  H      1.060919   -1.942431    0.660632
  H      1.288965    2.193489   -0.517301
  H     -1.406826   -1.779486    0.750149
  H     -1.179161    2.338693   -0.491321
  H      3.346120    1.004446    0.005378
  H      3.268527   -0.552402    0.866994
  H      3.211625   -0.515541   -0.905052
  H     -3.273814    1.202813   -0.192542
  H     -3.337487   -0.461144   -0.218071
  O     -3.180388   -1.120822    2.669263
  H     -2.296361   -0.995207    3.039474
  H     -3.191218   -0.485846    1.929026

----------------------------
CARTESIAN COORDINATES (A.U.)
----------------------------
  NO LB      ZA    FRAG     MASS         X           Y           Z
   0 N     7.0000    0    14.007   -5.425483    0.658705    0.341664
   1 C     6.0000    0    12.011    2.587977    0.213408    0.103721
   2 C     6.0000    0    12.011   -2.769742    0.524855    0.181124
   3 C     6.0000    0    12.011    1.093500   -1.882548    0.751701
   4 C     6.0000    0    12.011    1.332964    2.469727   -0.478386
   5 C     6.0000    0    12.011   -1.533957   -1.742162    0.808614
   6 C     6.0000    0    12.011   -1.301775    2.633958   -0.452069
   7 C     6.0000    0    12.011    5.429822    0.019477    0.010557
   8 H     1.0000    0     1.008    2.004846   -3.670662    1.248414
   9 H     1.0000    0     1.008    2.435792    4.145093   -0.977557
  10 H     1.0000    0     1.008   -2.658515   -3.362741    1.417575
  11 H     1.0000    0     1.008   -2.228290    4.419490   -0.928462
  12 H     1.0000    0     1.008    6.323251    1.898128    0.010163
  13 H     1.0000    0     1.008    6.176622   -1.043889    1.638381
  14 H     1.0000    0     1.008    6.069091   -0.974231   -1.710301
  15 H     1.0000    0     1.008   -6.186612    2.272988   -0.363851
  16 H     1.0000    0     1.008   -6.306936   -0.871436   -0.412094
  17 O     8.0000    0    15.999   -6.010062   -2.118046    5.044177
  18 H     1.0000    0     1.008   -4.339494   -1.880668    5.743774
  19 H     1.0000    0     1.008   -6.030527   -0.918115    3.645332

--------------------------------
INTERNAL COORDINATES (ANGSTROEM)
--------------------------------
 N      0   0   0     0.000000000000     0.00000000     0.00000000
 C      1   0   0     4.248948189009     0.00000000     0.00000000
 C      1   2   0     1.409703542468     1.78139059     0.00000000
 C      2   1   3     1.404700861119    58.30969326   244.88731777
 C      2   1   3     1.400559320804    59.06882276    64.55519665
 C      4   2   1     1.392699600477   121.68337375     0.55815007
 C      5   2   1     1.397019033113   121.60663719   358.85188119
 C      2   1   3     1.508143057324   179.25614284   274.10202320
 H      4   2   1     1.094082704828   119.56183149   181.30310160
 H      5   2   1     1.093779319323   119.41404461   179.21999432
 H      6   4   2     1.092432406887   120.55337777   183.38278645
 H      7   5   2     1.093939436181   119.91616838   180.43000624
 H      8   2   5     1.100834121587   111.51876262    16.89236417
 H      8   2   5     1.102197267500   111.51323183   137.58143379
 H      8   2   5     1.104634204667   111.38976059   256.97732135
 H      1   2   5     1.015548917487   115.56763617     9.03520019
 H      1   2   5     1.016026421640   113.72503342   137.84673102
 O     11   6   4     2.694877258760   112.12973233   128.26038000
 H     18  11   6     0.966611980723    72.69931304   295.10262110
 H     18  11   6     0.975326737612    68.03416809    46.80805555

---------------------------
INTERNAL COORDINATES (A.U.)
---------------------------
 N      0   0   0     0.000000000000     0.00000000     0.00000000
 C      1   0   0     8.029348434447     0.00000000     0.00000000
 C      1   2   0     2.663953625284     1.78139059     0.00000000
 C      2   1   3     2.654499927598    58.30969326   244.88731777
 C      2   1   3     2.646673550631    59.06882276    64.55519665
 C      4   2   1     2.631820831723   121.68337375     0.55815007
 C      5   2   1     2.639983376460   121.60663719   358.85188119
 C      2   1   3     2.849977349117   179.25614284   274.10202320
 H      4   2   1     2.067516679985   119.56183149   181.30310160
 H      5   2   1     2.066943364467   119.41404461   179.21999432
 H      6   4   2     2.064398068837   120.55337777   183.38278645
 H      7   5   2     2.067245941479   119.91616838   180.43000624
 H      8   2   5     2.080275008675   111.51876262    16.89236417
 H      8   2   5     2.082850981131   111.51323183   137.58143379
 H      8   2   5     2.087456124983   111.38976059   256.97732135
 H      1   2   5     1.919109329650   115.56763617     9.03520019
 H      1   2   5     1.920011681727   113.72503342   137.84673102
 O     11   6   4     5.092579983590   112.12973233   128.26038000
 H     18  11   6     1.826631921334    72.69931304   295.10262110
 H     18  11   6     1.843100425178    68.03416809    46.80805555

---------------------
BASIS SET INFORMATION
---------------------
There are 4 groups of distinct atoms

 Group   1 Type N   : 7s4p1d contracted to 3s2p1d pattern {511/31/1}
 Group   2 Type C   : 7s4p1d contracted to 3s2p1d pattern {511/31/1}
 Group   3 Type H   : 4s1p contracted to 2s1p pattern {31/1}
 Group   4 Type O   : 7s4p1d contracted to 3s2p1d pattern {511/31/1}

Atom   0N    basis set group =>   1
Atom   1C    basis set group =>   2
Atom   2C    basis set group =>   2
Atom   3C    basis set group =>   2
Atom   4C    basis set group =>   2
Atom   5C    basis set group =>   2
Atom   6C    basis set group =>   2
Atom   7C    basis set group =>   2
Atom   8H    basis set group =>   3
Atom   9H    basis set group =>   3
Atom  10H    basis set group =>   3
Atom  11H    basis set group =>   3
Atom  12H    basis set group =>   3
Atom  13H    basis set group =>   3
Atom  14H    basis set group =>   3
Atom  15H    basis set group =>   3
Atom  16H    basis set group =>   3
Atom  17O    basis set group =>   4
Atom  18H    basis set group =>   3
Atom  19H    basis set group =>   3
---------------------------------
AUXILIARY/J BASIS SET INFORMATION
---------------------------------
There are 4 groups of distinct atoms

 Group   1 Type N   : 12s5p4d2f1g contracted to 6s4p3d1f1g pattern {711111/2111/211/2/1}
 Group   2 Type C   : 12s5p4d2f1g contracted to 6s4p3d1f1g pattern {711111/2111/211/2/1}
 Group   3 Type H   : 5s2p1d contracted to 3s1p1d pattern {311/2/1}
 Group   4 Type O   : 12s5p4d2f1g contracted to 6s4p3d1f1g pattern {711111/2111/211/2/1}

Atom   0N    basis set group =>   1
Atom   1C    basis set group =>   2
Atom   2C    basis set group =>   2
Atom   3C    basis set group =>   2
Atom   4C    basis set group =>   2
Atom   5C    basis set group =>   2
Atom   6C    basis set group =>   2
Atom   7C    basis set group =>   2
Atom   8H    basis set group =>   3
Atom   9H    basis set group =>   3
Atom  10H    basis set group =>   3
Atom  11H    basis set group =>   3
Atom  12H    basis set group =>   3
Atom  13H    basis set group =>   3
Atom  14H    basis set group =>   3
Atom  15H    basis set group =>   3
Atom  16H    basis set group =>   3
Atom  17O    basis set group =>   4
Atom  18H    basis set group =>   3
Atom  19H    basis set group =>   3
--------------------------------------------------------------------------
By default, for Open MPI 4.0 and later, infiniband ports on a device
are not used by default.  The intent is to use UCX for these devices.
You can override this policy by setting the btl_openib_allow_ib MCA parameter
to true.

  Local host:              psid01
  Local adapter:           mlx5_0
  Local port:              1

--------------------------------------------------------------------------
--------------------------------------------------------------------------
WARNING: There was an error initializing an OpenFabrics device.

  Local host:   psid01
  Local device: mlx5_0
--------------------------------------------------------------------------


           ************************************************************
           *        Program running with 28 parallel MPI-processes    *
           *              working on a common directory               *
           ************************************************************
------------------------------------------------------------------------------
                             ORCA STARTUP CALCULATIONS
                           -- RI-GTO INTEGRALS CHOSEN --
------------------------------------------------------------------------------
------------------------------------------------------------------------------
                   ___                                                        
                  /   \      - P O W E R E D   B Y -                         
                 /     \                                                     
                 |  |  |   _    _      __       _____    __    __             
                 |  |  |  | |  | |    /  \     |  _  \  |  |  /  |          
                  \  \/   | |  | |   /    \    | | | |  |  | /  /          
                 / \  \   | |__| |  /  /\  \   | |_| |  |  |/  /          
                |  |  |   |  __  | /  /__\  \  |    /   |      \           
                |  |  |   | |  | | |   __   |  |    \   |  |\   \          
                \     /   | |  | | |  |  |  |  | |\  \  |  | \   \       
                 \___/    |_|  |_| |__|  |__|  |_| \__\ |__|  \__/        
                                                                              
                      - O R C A' S   B I G   F R I E N D -                    
                                      &                                       
                       - I N T E G R A L  F E E D E R -                       
                                                                              
 v1 FN, 2020, v2 2021, v3 2022-2024                                           
------------------------------------------------------------------------------


----------------------
SHARK INTEGRAL PACKAGE
----------------------

Number of atoms                             ...     20
Number of basis functions                   ...    181
Number of shells                            ...     87
Maximum angular momentum                    ...      2
Integral batch strategy                     ... SHARK/LIBINT Hybrid
RI-J (if used) integral strategy            ... SPLIT-RIJ (Revised 2003 algorithm where possible)
Printlevel                                  ...      1
Contraction scheme used                     ... SEGMENTED contraction
Prescreening option                         ... SCHWARTZ
   Thresh                                   ... 2.500e-11
   Tcut                                     ... 2.500e-12
   Tpresel                                  ... 2.500e-12 
Coulomb Range Separation                    ... NOT USED
Exchange Range Separation                   ... NOT USED
Multipole approximations                    ... NOT USED
Finite Nucleus Model                        ... NOT USED
CABS basis                                  ... NOT available
Auxiliary Coulomb fitting basis             ... AVAILABLE
   # of basis functions in Aux-J            ...    562
   # of shells in Aux-J                     ...    190
   Maximum angular momentum in Aux-J        ...      4
Auxiliary J/K fitting basis                 ... NOT available
Auxiliary Correlation fitting basis         ... NOT available
Auxiliary 'external' fitting basis          ... NOT available

Checking pre-screening integrals            ... done (  0.0 sec) Dimension = 87
Check shell pair data                       ... done (  0.0 sec)
Shell pair information
Shell pair cut-off parameter TPreSel        ...   2.5e-12
Total number of shell pairs                 ...      3828
Shell pairs after pre-screening             ...      3439
Total number of primitive shell pairs       ...     13516
Primitive shell pairs kept                  ...      8759
          la=0 lb=0:   1117 shell pairs
          la=1 lb=0:   1277 shell pairs
          la=1 lb=1:    386 shell pairs
          la=2 lb=0:    392 shell pairs
          la=2 lb=1:    227 shell pairs
          la=2 lb=2:     40 shell pairs

Calculating one electron integrals          ... done (  0.0 sec)
Calculating RI/J V-Matrix + Cholesky decomp.... done (  0.0 sec)
Calculating Nuclear repulsion               ... done (  0.0 sec) ENN=    425.011778522868 Eh

Diagonalization of the overlap matrix:
Smallest eigenvalue                        ... 2.628e-04
Time for diagonalization                   ...    0.003 sec
Threshold for overlap eigenvalues          ... 1.000e-07
Number of eigenvalues below threshold      ... 0
Time for construction of square roots      ...    0.002 sec
Total time needed                          ...    0.011 sec

-------------------
DFT GRID GENERATION
-------------------

General Integration Accuracy     IntAcc      ... 4.388
Radial Grid Type                 RadialGrid  ... OptM3 with GC (2021)
Angular Grid (max. ang.)         AngularGrid ... 4 (Lebedev-302)
Angular grid pruning method      GridPruning ... 4 (adaptive)
Weight generation scheme         WeightScheme... mBecke (2022)
Basis function cutoff            BFCut       ... 1.0000e-11
Integration weight cutoff        WCut        ... 1.0000e-14
Partially contracted basis set               ... off
Rotationally invariant grid construction     ... off
Angular grids for H and He will be reduced by one unit

Total number of grid points                  ...    89521
Total number of batches                      ...     1409
Average number of points per batch           ...       63
Average number of grid points per atom       ...     4476

--------------------
COSX GRID GENERATION
--------------------

GRIDX 1
-------
General Integration Accuracy     IntAcc      ... 3.816
Radial Grid Type                 RadialGrid  ... OptM3 with GC (2021)
Angular Grid (max. ang.)         AngularGrid ... 1 (Lebedev-50)
Angular grid pruning method      GridPruning ... 4 (adaptive)
Weight generation scheme         WeightScheme... mBecke (2022)
Basis function cutoff            BFCut       ... 1.0000e-11
Integration weight cutoff        WCut        ... 1.0000e-14
Partially contracted basis set               ... on
Rotationally invariant grid construction     ... off
Angular grids for H and He will be reduced by one unit

Total number of grid points                  ...    11475
Total number of batches                      ...      102
Average number of points per batch           ...      112
Average number of grid points per atom       ...      574
UseSFitting                                  ... on

GRIDX 2
-------
General Integration Accuracy     IntAcc      ... 4.020
Radial Grid Type                 RadialGrid  ... OptM3 with GC (2021)
Angular Grid (max. ang.)         AngularGrid ... 2 (Lebedev-110)
Angular grid pruning method      GridPruning ... 4 (adaptive)
Weight generation scheme         WeightScheme... mBecke (2022)
Basis function cutoff            BFCut       ... 1.0000e-11
Integration weight cutoff        WCut        ... 1.0000e-14
Partially contracted basis set               ... on
Rotationally invariant grid construction     ... off
Angular grids for H and He will be reduced by one unit

Total number of grid points                  ...    24514
Total number of batches                      ...      202
Average number of points per batch           ...      121
Average number of grid points per atom       ...     1226
UseSFitting                                  ... on

GRIDX 3
-------
General Integration Accuracy     IntAcc      ... 4.338
Radial Grid Type                 RadialGrid  ... OptM3 with GC (2021)
Angular Grid (max. ang.)         AngularGrid ... 3 (Lebedev-194)
Angular grid pruning method      GridPruning ... 4 (adaptive)
Weight generation scheme         WeightScheme... mBecke (2022)
Basis function cutoff            BFCut       ... 1.0000e-11
Integration weight cutoff        WCut        ... 1.0000e-14
Partially contracted basis set               ... on
Rotationally invariant grid construction     ... off
Angular grids for H and He will be reduced by one unit

Total number of grid points                  ...    53632
Total number of batches                      ...      429
Average number of points per batch           ...      125
Average number of grid points per atom       ...     2682
UseSFitting                                  ... on
Initializing property integral containers    ... done (  0.0 sec)

SHARK setup successfully completed in   0.9 seconds

Maximum memory used throughout the entire STARTUP-calculation: 22.2 MB
[psid01:82463] 27 more processes have sent help message help-mpi-btl-openib.txt / ib port not selected
[psid01:82463] Set MCA parameter "orte_base_help_aggregate" to 0 to see all help / error messages
[psid01:82463] 27 more processes have sent help message help-mpi-btl-openib.txt / error in device init
--------------------------------------------------------------------------
By default, for Open MPI 4.0 and later, infiniband ports on a device
are not used by default.  The intent is to use UCX for these devices.
You can override this policy by setting the btl_openib_allow_ib MCA parameter
to true.

  Local host:              psid01
  Local adapter:           mlx5_0
  Local port:              1

--------------------------------------------------------------------------
--------------------------------------------------------------------------
WARNING: There was an error initializing an OpenFabrics device.

  Local host:   psid01
  Local device: mlx5_0
--------------------------------------------------------------------------


           ************************************************************
           *        Program running with 28 parallel MPI-processes    *
           *              working on a common directory               *
           ************************************************************
-------------------------------------------------------------------------------
                                 ORCA GUESS
                   Start orbitals & Density for SCF / CASSCF
-------------------------------------------------------------------------------

------------
SCF SETTINGS
------------
Hamiltonian:
 Density Functional     Method          .... DFT(GTOs)
 Exchange Functional    Exchange        .... B88
   X-Alpha parameter    XAlpha          ....  0.666667
   Becke's b parameter  XBeta           ....  0.004200
 Correlation Functional Correlation     .... LYP
 LDA part of GGA corr.  LDAOpt          .... VWN-5
 Gradients option       PostSCFGGA      .... off
 Hybrid DFT is turned on
   Fraction HF Exchange ScalHFX         ....  0.200000
   Scaling of DF-GGA-X  ScalDFX         ....  0.720000
   Scaling of DF-GGA-C  ScalDFC         ....  0.810000
   Scaling of DF-LDA-C  ScalLDAC        ....  1.000000
   Perturbative correction              ....  0.000000
   NL short-range parameter             ....  4.800000
 RI-approximation to the Coulomb term is turned on
   Number of AuxJ basis functions       .... 562
   RIJ-COSX (HFX calculated with COS-X)).... on


General Settings:
 Integral files         IntName         .... p_toluidine_water_2_OPT
 Hartree-Fock type      HFTyp           .... RHF
 Total Charge           Charge          ....    0
 Multiplicity           Mult            ....    1
 Number of Electrons    NEL             ....   68
 Basis Dimension        Dim             ....  181
 Nuclear Repulsion      ENuc            ....    425.0117785229 Eh

Convergence Acceleration:
 AO-DIIS                CNVDIIS         .... on
   Start iteration      DIISMaxIt       ....    12
   Startup error        DIISStart       ....  0.200000
   # of expansion vecs  DIISMaxEq       ....     5
   Bias factor          DIISBfac        ....   1.050
   Max. coefficient     DIISMaxC        ....  10.000
 MO-DIIS                CNVKDIIS        .... off
 Trust-Rad. Augm. Hess. CNVTRAH         .... auto
   Auto Start mean grad. ratio tolernc. ....  1.125000
   Auto Start start iteration           ....    50
   Auto Start num. interpolation iter.  ....    10
   Max. Number of Micro iterations      ....    24
   Max. Number of Macro iterations      .... Maxiter - #DIIS iter
   Number of Davidson start vectors     ....     2
   Converg. threshold    (grad. norm)   ....   1.000e-05
   Grad. Scal. Fac. for Micro threshold ....   0.100
   Minimum threshold for Micro iter.    ....   1.000e-02
   NR start threshold (gradient norm)   ....   1.000e-04
   Initial trust radius                 ....   0.400
   Minimum AH scaling param. (alpha)    ....   1.000
   Maximum AH scaling param. (alpha)    .... 1000.000
   Quad. conv. algorithm                .... NR
   White noise on init. David. guess    .... on
   Maximum white noise                  ....   0.010
   Pseudo random numbers                .... off
   Inactive MOs                         .... canonical
   Orbital update algorithm             .... Taylor
   Preconditioner                       .... Diag
   Full preconditioner red. dimension   ....   250
 SOSCF                  CNVSOSCF        .... on
   Start iteration      SOSCFMaxIt      ....   150
   Startup grad/error   SOSCFStart      ....  0.003300
   Hessian update       SOSCFHessUp     .... L-BFGS
 Level Shifting         CNVShift        .... on
   Level shift para.    LevelShift      ....    0.2500
   Turn off err/grad.   ShiftErr        ....    0.0010
 Zerner damping         CNVZerner       .... off
 Static damping         CNVDamp         .... on
   Fraction old density DampFac         ....    0.7000
   Max. Damping (<1)    DampMax         ....    0.9800
   Min. Damping (>=0)   DampMin         ....    0.0000
   Turn off err/grad.   DampErr         ....    0.1000

SCF Procedure:
 Maximum # iterations   MaxIter         ....   125
 SCF integral mode      SCFMode         .... Direct
   Integral package                     .... SHARK and LIBINT hybrid scheme
 Reset frequency        DirectResetFreq ....    20
 Integral Threshold     Thresh          ....  2.500e-11 Eh
 Primitive CutOff       TCut            ....  2.500e-12 Eh

Convergence Tolerance:
 Convergence Check Mode ConvCheckMode   .... Total+1el-Energy
 Convergence forced     ConvForced      .... 0
 Energy Change          TolE            ....  1.000e-08 Eh
 1-El. energy change                    ....  1.000e-05 Eh
 Orbital Gradient       TolG            ....  1.000e-05
 Orbital Rotation angle TolX            ....  1.000e-05
 DIIS Error             TolErr          ....  5.000e-07

------------------------------
INITIAL GUESS: MODEL POTENTIAL
------------------------------
Loading Hartree-Fock densities                     ... done
Calculating cut-offs                               ... done
Initializing the effective Hamiltonian             ... done
Setting up the integral package (SHARK)            ... done
Starting the Coulomb interaction                   ... done (   0.0 sec)
Making the grid                                    ... done (   0.1 sec)
Mapping shells                                     ... done
Starting the XC term evaluation                    ... done (   0.0 sec)
  promolecular density results
     # of electrons  =     67.993308175
     EX              =    -54.013652230
     EC              =     -2.257843032
     EX+EC           =    -56.271495262
Transforming the Hamiltonian                       ... done (   0.0 sec)
Diagonalizing the Hamiltonian                      ... done (   0.0 sec)
Back transforming the eigenvectors                 ... done (   0.0 sec)
Now organizing SCF variables                       ... done
                      ------------------
                      INITIAL GUESS DONE (   0.2 sec)
                      ------------------
             **** ENERGY FILE WAS UPDATED (p_toluidine_water_2_OPT.en.tmp) ****
Finished Guess after   0.9 sec
Maximum memory used throughout the entire GUESS-calculation: 12.8 MB
[psid01:82562] 27 more processes have sent help message help-mpi-btl-openib.txt / ib port not selected
[psid01:82562] Set MCA parameter "orte_base_help_aggregate" to 0 to see all help / error messages
[psid01:82562] 27 more processes have sent help message help-mpi-btl-openib.txt / error in device init
--------------------------------------------------------------------------
By default, for Open MPI 4.0 and later, infiniband ports on a device
are not used by default.  The intent is to use UCX for these devices.
You can override this policy by setting the btl_openib_allow_ib MCA parameter
to true.

  Local host:              psid01
  Local adapter:           mlx5_0
  Local port:              1

--------------------------------------------------------------------------
--------------------------------------------------------------------------
WARNING: There was an error initializing an OpenFabrics device.

  Local host:   psid01
  Local device: mlx5_0
--------------------------------------------------------------------------


           ************************************************************
           *        Program running with 28 parallel MPI-processes    *
           *              working on a common directory               *
           ************************************************************

-------------------------------------------------------------------------------------------
                                      ORCA LEAN-SCF
                              memory conserving SCF solver
-------------------------------------------------------------------------------------------

----------------------------------------D-I-I-S--------------------------------------------
Iteration    Energy (Eh)           Delta-E    RMSDP     MaxDP     DIISErr   Damp  Time(sec)
-------------------------------------------------------------------------------------------
               ***  Starting incremental Fock matrix formation  ***
    1    -402.5017755841804501     0.00e+00  3.91e-03  8.70e-02  3.05e-01  0.700   0.4
    2    -402.6448492712331699    -1.43e-01  2.66e-03  4.89e-02  1.29e-01  0.700   0.3
                               ***Turning on AO-DIIS***
    3    -402.7024057357434685    -5.76e-02  1.08e-03  1.48e-02  3.91e-02  0.700   0.3
    4    -402.7360816292443815    -3.37e-02  1.93e-03  2.61e-02  2.02e-02  0.000   0.3
    5    -402.8094300658901830    -7.33e-02  3.25e-04  6.28e-03  5.79e-03  0.000   0.3
                              *** Initializing SOSCF ***
---------------------------------------S-O-S-C-F--------------------------------------
Iteration    Energy (Eh)           Delta-E    RMSDP     MaxDP     MaxGrad    Time(sec)
--------------------------------------------------------------------------------------
    6    -402.8098126446217293    -3.83e-04  1.38e-04  3.54e-03  2.92e-03     0.3
               *** Restarting incremental Fock matrix formation ***
    7    -402.8097322763510419     8.04e-05  7.85e-05  1.36e-03  2.24e-04     0.4
    8    -402.8097319328689991     3.43e-07  3.00e-05  6.11e-04  4.25e-04     0.3
    9    -402.8097351240328408    -3.19e-06  1.95e-05  3.88e-04  1.18e-04     0.4
   10    -402.8097350279904276     9.60e-08  9.26e-06  1.68e-04  8.91e-05     0.3
   11    -402.8097353831312830    -3.55e-07  1.86e-06  4.14e-05  6.33e-06     0.3
   12    -402.8097353821769957     9.54e-10  8.44e-07  2.55e-05  9.16e-06     0.3
                 **** Energy Check signals convergence ****

               *****************************************************
               *                     SUCCESS                       *
               *           SCF CONVERGED AFTER  12 CYCLES          *
               *****************************************************

Recomputing exchange energy using gridx3       ... done (    0.355 sec)
Old exchange energy                            :    -10.993041996 Eh
New exchange energy                            :    -10.993059036 Eh
Exchange energy change after final integration :     -0.000017040 Eh
Total energy after final integration           :   -402.809752422 Eh
             **** ENERGY FILE WAS UPDATED (p_toluidine_water_2_OPT.en.tmp) ****

----------------
TOTAL SCF ENERGY
----------------

Total Energy       :       -402.80975242210332 Eh          -10961.01061 eV

Components:
Nuclear Repulsion  :        425.01177852286776 Eh           11565.15845 eV
Electronic Energy  :       -827.82151390504475 Eh          -22526.16860 eV
One Electron Energy:      -1387.70662625445561 Eh          -37761.41705 eV
Two Electron Energy:        559.88511234941086 Eh           15235.24845 eV

Virial components:
Potential Energy   :       -801.55479581194220 Eh          -21811.41486 eV
Kinetic Energy     :        398.74504338983888 Eh           10850.40425 eV
Virial Ratio       :          2.01019375437926

DFT components:
N(Alpha)           :       34.000030251823 electrons
N(Beta)            :       34.000030251823 electrons
N(Total)           :       68.000060503645 electrons
E(X)               :      -43.648796950532 Eh       
E(C)               :       -2.674263420893 Eh       
E(XC)              :      -46.323060371426 Eh       

---------------
SCF CONVERGENCE
---------------

  Last Energy change         ...   -9.5429e-10  Tolerance :   1.0000e-08
  Last MAX-Density change    ...    2.5494e-05  Tolerance :   1.0000e-07
  Last RMS-Density change    ...    8.4352e-07  Tolerance :   5.0000e-09
  Last DIIS Error            ...    2.9190e-03  Tolerance :   5.0000e-07
  Last Orbital Gradient      ...    9.1614e-06  Tolerance :   1.0000e-05
  Last Orbital Rotation      ...    1.0355e-05  Tolerance :   1.0000e-05


----------------
ORBITAL ENERGIES
----------------

  NO   OCC          E(Eh)            E(eV) 
   0   2.0000     -19.088664      -519.4290 
   1   2.0000     -14.345971      -390.3737 
   2   2.0000     -10.226850      -278.2867 
   3   2.0000     -10.187629      -277.2195 
   4   2.0000     -10.187037      -277.2034 
   5   2.0000     -10.186671      -277.1934 
   6   2.0000     -10.186194      -277.1804 
   7   2.0000     -10.184341      -277.1300 
   8   2.0000     -10.183274      -277.1010 
   9   2.0000      -0.949256       -25.8306 
  10   2.0000      -0.915920       -24.9235 
  11   2.0000      -0.835977       -22.7481 
  12   2.0000      -0.750374       -20.4187 
  13   2.0000      -0.736577       -20.0433 
  14   2.0000      -0.668477       -18.1902 
  15   2.0000      -0.611014       -16.6265 
  16   2.0000      -0.579404       -15.7664 
  17   2.0000      -0.521151       -14.1812 
  18   2.0000      -0.517341       -14.0776 
  19   2.0000      -0.480320       -13.0702 
  20   2.0000      -0.460430       -12.5289 
  21   2.0000      -0.447722       -12.1831 
  22   2.0000      -0.427296       -11.6273 
  23   2.0000      -0.418744       -11.3946 
  24   2.0000      -0.416089       -11.3223 
  25   2.0000      -0.385802       -10.4982 
  26   2.0000      -0.377474       -10.2716 
  27   2.0000      -0.356812        -9.7093 
  28   2.0000      -0.341339        -9.2883 
  29   2.0000      -0.339936        -9.2501 
  30   2.0000      -0.305125        -8.3029 
  31   2.0000      -0.265753        -7.2315 
  32   2.0000      -0.253901        -6.9090 
  33   2.0000      -0.214689        -5.8420 
  34   0.0000      -0.009767        -0.2658 
  35   0.0000       0.003270         0.0890 
  36   0.0000       0.049155         1.3376 
  37   0.0000       0.067158         1.8275 
  38   0.0000       0.081072         2.2061 
  39   0.0000       0.090268         2.4563 
  40   0.0000       0.101623         2.7653 
  41   0.0000       0.112869         3.0713 
  42   0.0000       0.131094         3.5673 
  43   0.0000       0.139756         3.8029 
  44   0.0000       0.155569         4.2332 
*Only the first 10 virtual orbitals were printed.

                    ********************************
                    * MULLIKEN POPULATION ANALYSIS *
                    ********************************

-----------------------
MULLIKEN ATOMIC CHARGES
-----------------------
   0 N :   -0.113778
   1 C :   -0.029587
   2 C :    0.052332
   3 C :   -0.019958
   4 C :   -0.019549
   5 C :   -0.043647
   6 C :   -0.009446
   7 C :    0.080603
   8 H :   -0.031382
   9 H :   -0.033235
  10 H :   -0.037760
  11 H :   -0.045792
  12 H :    0.005781
  13 H :    0.016440
  14 H :    0.026515
  15 H :    0.105619
  16 H :    0.131044
  17 O :   -0.314021
  18 H :    0.146725
  19 H :    0.133097
Sum of atomic charges:   -0.0000000

--------------------------------
MULLIKEN REDUCED ORBITAL CHARGES
--------------------------------
  0 N s       :     3.344864  s :     3.344864
      pz      :     1.621712  p :     3.750948
      px      :     1.085318
      py      :     1.043918
      dz2     :     0.001138  d :     0.017967
      dxz     :     0.003779
      dyz     :     0.004053
      dx2y2   :     0.004639
      dxy     :     0.004357

  1 C s       :     3.054672  s :     3.054672
      pz      :     1.000997  p :     2.932308
      px      :     0.959755
      py      :     0.971556
      dz2     :     0.003659  d :     0.042607
      dxz     :     0.006771
      dyz     :     0.005880
      dx2y2   :     0.012718
      dxy     :     0.013578

  2 C s       :     2.973532  s :     2.973532
      pz      :     0.983603  p :     2.914694
      px      :     0.899552
      py      :     1.031540
      dz2     :     0.005218  d :     0.059441
      dxz     :     0.014287
      dyz     :     0.006426
      dx2y2   :     0.018715
      dxy     :     0.014795

  3 C s       :     3.227810  s :     3.227810
      pz      :     0.982259  p :     2.757200
      px      :     0.904782
      py      :     0.870159
      dz2     :     0.002801  d :     0.034948
      dxz     :     0.006648
      dyz     :     0.003430
      dx2y2   :     0.010613
      dxy     :     0.011456

  4 C s       :     3.221055  s :     3.221055
      pz      :     0.979952  p :     2.763451
      px      :     0.886583
      py      :     0.896916
      dz2     :     0.002740  d :     0.035043
      dxz     :     0.006315
      dyz     :     0.003848
      dx2y2   :     0.010370
      dxy     :     0.011770

  5 C s       :     3.248402  s :     3.248402
      pz      :     1.015518  p :     2.762378
      px      :     0.870278
      py      :     0.876582
      dz2     :     0.002683  d :     0.032867
      dxz     :     0.005928
      dyz     :     0.003690
      dx2y2   :     0.008942
      dxy     :     0.011624

  6 C s       :     3.225571  s :     3.225571
      pz      :     1.034527  p :     2.750697
      px      :     0.882288
      py      :     0.833882
      dz2     :     0.002803  d :     0.033178
      dxz     :     0.006036
      dyz     :     0.003337
      dx2y2   :     0.009119
      dxy     :     0.011883

  7 C s       :     2.935574  s :     2.935574
      pz      :     1.004076  p :     2.955398
      px      :     0.960366
      py      :     0.990956
      dz2     :     0.005296  d :     0.028425
      dxz     :     0.005594
      dyz     :     0.005330
      dx2y2   :     0.006465
      dxy     :     0.005740

  8 H s       :     1.008672  s :     1.008672
      pz      :     0.005213  p :     0.022709
      px      :     0.005570
      py      :     0.011927

  9 H s       :     1.010464  s :     1.010464
      pz      :     0.005311  p :     0.022772
      px      :     0.006629
      py      :     0.010831

 10 H s       :     1.014480  s :     1.014480
      pz      :     0.006071  p :     0.023280
      px      :     0.006699
      py      :     0.010510

 11 H s       :     1.022870  s :     1.022870
      pz      :     0.005662  p :     0.022921
      px      :     0.005363
      py      :     0.011897

 12 H s       :     0.971165  s :     0.971165
      pz      :     0.005079  p :     0.023054
      px      :     0.005717
      py      :     0.012258

 13 H s       :     0.960285  s :     0.960285
      pz      :     0.010673  p :     0.023275
      px      :     0.005274
      py      :     0.007329

 14 H s       :     0.950014  s :     0.950014
      pz      :     0.011235  p :     0.023471
      px      :     0.005031
      py      :     0.007205

 15 H s       :     0.849554  s :     0.849554
      pz      :     0.013935  p :     0.044827
      px      :     0.010533
      py      :     0.020359

 16 H s       :     0.823642  s :     0.823642
      pz      :     0.014511  p :     0.045315
      px      :     0.011641
      py      :     0.019163

 17 O s       :     3.673938  s :     3.673938
      pz      :     1.513691  p :     4.629713
      px      :     1.425822
      py      :     1.690200
      dz2     :     0.001215  d :     0.010371
      dxz     :     0.001283
      dyz     :     0.003039
      dx2y2   :     0.003604
      dxy     :     0.001229

 18 H s       :     0.782965  s :     0.782965
      pz      :     0.020472  p :     0.070310
      px      :     0.031607
      py      :     0.018231

 19 H s       :     0.793618  s :     0.793618
      pz      :     0.032025  p :     0.073285
      px      :     0.015516
      py      :     0.025744



                     *******************************
                     * LOEWDIN POPULATION ANALYSIS *
                     *******************************

----------------------
LOEWDIN ATOMIC CHARGES
----------------------
   0 N :   -0.027949
   1 C :   -0.045511
   2 C :    0.005658
   3 C :   -0.019148
   4 C :   -0.021759
   5 C :   -0.058988
   6 C :   -0.060266
   7 C :   -0.045684
   8 H :    0.024863
   9 H :    0.023970
  10 H :    0.020871
  11 H :    0.021353
  12 H :    0.026867
  13 H :    0.030198
  14 H :    0.033542
  15 H :    0.071026
  16 H :    0.077273
  17 O :   -0.161163
  18 H :    0.068287
  19 H :    0.036560

-------------------------------
LOEWDIN REDUCED ORBITAL CHARGES
-------------------------------
  0 N s       :     3.081307  s :     3.081307
      pz      :     1.591355  p :     3.902841
      px      :     1.161469
      py      :     1.150017
      dz2     :     0.002276  d :     0.043802
      dxz     :     0.006808
      dyz     :     0.008364
      dx2y2   :     0.013394
      dxy     :     0.012959

  1 C s       :     2.854156  s :     2.854156
      pz      :     0.985573  p :     3.085513
      px      :     1.031349
      py      :     1.068591
      dz2     :     0.008274  d :     0.105842
      dxz     :     0.012909
      dyz     :     0.013526
      dx2y2   :     0.034912
      dxy     :     0.036221

  2 C s       :     2.839807  s :     2.839807
      pz      :     0.976098  p :     3.013601
      px      :     0.947054
      py      :     1.090448
      dz2     :     0.010937  d :     0.140934
      dxz     :     0.030123
      dyz     :     0.014259
      dx2y2   :     0.047791
      dxy     :     0.037825

  3 C s       :     2.861380  s :     2.861380
      pz      :     0.979023  p :     3.066472
      px      :     1.055587
      py      :     1.031862
      dz2     :     0.006498  d :     0.091296
      dxz     :     0.014872
      dyz     :     0.007271
      dx2y2   :     0.030312
      dxy     :     0.032344

  4 C s       :     2.861227  s :     2.861227
      pz      :     0.981171  p :     3.069303
      px      :     1.050842
      py      :     1.037289
      dz2     :     0.006386  d :     0.091228
      dxz     :     0.013943
      dyz     :     0.008235
      dx2y2   :     0.029607
      dxy     :     0.033058

  5 C s       :     2.862293  s :     2.862293
      pz      :     1.017575  p :     3.109216
      px      :     1.057392
      py      :     1.034249
      dz2     :     0.006354  d :     0.087479
      dxz     :     0.013292
      dyz     :     0.008007
      dx2y2   :     0.026944
      dxy     :     0.032883

  6 C s       :     2.860237  s :     2.860237
      pz      :     1.027348  p :     3.111776
      px      :     1.056927
      py      :     1.027501
      dz2     :     0.006560  d :     0.088253
      dxz     :     0.013498
      dyz     :     0.007129
      dx2y2   :     0.027535
      dxy     :     0.033531

  7 C s       :     2.835072  s :     2.835072
      pz      :     1.064365  p :     3.137889
      px      :     1.013823
      py      :     1.059702
      dz2     :     0.013895  d :     0.072723
      dxz     :     0.013175
      dyz     :     0.013663
      dx2y2   :     0.017593
      dxy     :     0.014396

  8 H s       :     0.908846  s :     0.908846
      pz      :     0.015665  p :     0.066292
      px      :     0.016391
      py      :     0.034236

  9 H s       :     0.909643  s :     0.909643
      pz      :     0.015863  p :     0.066387
      px      :     0.019222
      py      :     0.031302

 10 H s       :     0.908719  s :     0.908719
      pz      :     0.018115  p :     0.070410
      px      :     0.020675
      py      :     0.031620

 11 H s       :     0.911185  s :     0.911185
      pz      :     0.017012  p :     0.067461
      px      :     0.016254
      py      :     0.034195

 12 H s       :     0.909458  s :     0.909458
      pz      :     0.012285  p :     0.063675
      px      :     0.016978
      py      :     0.034412

 13 H s       :     0.905898  s :     0.905898
      pz      :     0.029105  p :     0.063904
      px      :     0.015533
      py      :     0.019266

 14 H s       :     0.902567  s :     0.902567
      pz      :     0.030869  p :     0.063891
      px      :     0.014724
      py      :     0.018298

 15 H s       :     0.809116  s :     0.809116
      pz      :     0.042964  p :     0.119858
      px      :     0.026291
      py      :     0.050603

 16 H s       :     0.800572  s :     0.800572
      pz      :     0.045550  p :     0.122155
      px      :     0.029091
      py      :     0.047514

 17 O s       :     3.432809  s :     3.432809
      pz      :     1.525407  p :     4.709438
      px      :     1.486773
      py      :     1.697258
      dz2     :     0.002171  d :     0.018916
      dxz     :     0.002698
      dyz     :     0.006352
      dx2y2   :     0.006651
      dxy     :     0.001044

 18 H s       :     0.754377  s :     0.754377
      pz      :     0.046795  p :     0.177336
      px      :     0.084038
      py      :     0.046503

 19 H s       :     0.765206  s :     0.765206
      pz      :     0.086064  p :     0.198234
      px      :     0.034354
      py      :     0.077816



                      *****************************
                      * MAYER POPULATION ANALYSIS *
                      *****************************

  NA   - Mulliken gross atomic population
  ZA   - Total nuclear charge
  QA   - Mulliken gross atomic charge
  VA   - Mayer's total valence
  BVA  - Mayer's bonded valence
  FA   - Mayer's free valence

  ATOM       NA         ZA         QA         VA         BVA        FA
  0 N      7.1138     7.0000    -0.1138     3.1670     3.1670    -0.0000
  1 C      6.0296     6.0000    -0.0296     3.9478     3.9478    -0.0000
  2 C      5.9477     6.0000     0.0523     3.9904     3.9904    -0.0000
  3 C      6.0200     6.0000    -0.0200     3.8619     3.8619     0.0000
  4 C      6.0195     6.0000    -0.0195     3.8749     3.8749     0.0000
  5 C      6.0436     6.0000    -0.0436     3.8334     3.8334    -0.0000
  6 C      6.0094     6.0000    -0.0094     3.7989     3.7989    -0.0000
  7 C      5.9194     6.0000     0.0806     3.9067     3.9067    -0.0000
  8 H      1.0314     1.0000    -0.0314     0.9851     0.9851     0.0000
  9 H      1.0332     1.0000    -0.0332     0.9847     0.9847     0.0000
 10 H      1.0378     1.0000    -0.0378     1.0352     1.0352    -0.0000
 11 H      1.0458     1.0000    -0.0458     0.9851     0.9851     0.0000
 12 H      0.9942     1.0000     0.0058     0.9949     0.9949    -0.0000
 13 H      0.9836     1.0000     0.0164     0.9899     0.9899    -0.0000
 14 H      0.9735     1.0000     0.0265     0.9856     0.9856    -0.0000
 15 H      0.8944     1.0000     0.1056     1.0023     1.0023    -0.0000
 16 H      0.8690     1.0000     0.1310     0.9876     0.9876     0.0000
 17 O      8.3140     8.0000    -0.3140     2.0541     2.0541    -0.0000
 18 H      0.8533     1.0000     0.1467     1.0179     1.0179    -0.0000
 19 H      0.8669     1.0000     0.1331     1.0901     1.0901    -0.0000

  Mayer bond orders larger than 0.100000
B(  0-N ,  2-C ) :   1.1157 B(  0-N , 15-H ) :   0.9495 B(  0-N , 16-H ) :   0.9448 
B(  0-N , 19-H ) :   0.1189 B(  1-C ,  3-C ) :   1.3674 B(  1-C ,  4-C ) :   1.3969 
B(  1-C ,  7-C ) :   1.0651 B(  2-C ,  5-C ) :   1.3488 B(  2-C ,  6-C ) :   1.3659 
B(  3-C ,  5-C ) :   1.3850 B(  3-C ,  8-H ) :   0.9855 B(  4-C ,  6-C ) :   1.3644 
B(  4-C ,  9-H ) :   0.9797 B(  5-C , 10-H ) :   0.9808 B(  6-C , 11-H ) :   0.9836 
B(  7-C , 12-H ) :   0.9589 B(  7-C , 13-H ) :   0.9570 B(  7-C , 14-H ) :   0.9531 
B( 17-O , 18-H ) :   1.0045 B( 17-O , 19-H ) :   0.9633 

-------
TIMINGS
-------

Total SCF time: 0 days 0 hours 0 min 5 sec 

Total time                  ....       5.377 sec
Sum of individual times     ....       5.212 sec  ( 96.9%)

SCF preparation             ....       0.822 sec  ( 15.3%)
Fock matrix formation       ....       3.729 sec  ( 69.4%)
  Startup                   ....       0.105 sec  (  2.8% of F)
  Split-RI-J                ....       0.331 sec  (  8.9% of F)
  Chain of spheres X        ....       1.873 sec  ( 50.2% of F)
  XC integration            ....       1.235 sec  ( 33.1% of F)
    XC Preparation          ....       0.000 sec  (  0.0% of XC)
    Basis function eval.    ....       0.150 sec  ( 12.2% of XC)
    Density eval.           ....       0.062 sec  (  5.0% of XC)
    XC-Functional eval.     ....       0.037 sec  (  3.0% of XC)
    XC-Potential eval.      ....       0.088 sec  (  7.1% of XC)
Diagonalization             ....       0.000 sec  (  0.0%)
Density matrix formation    ....       0.225 sec  (  4.2%)
Total Energy calculation    ....       0.056 sec  (  1.0%)
Population analysis         ....       0.029 sec  (  0.5%)
Orbital Transformation      ....       0.028 sec  (  0.5%)
Orbital Orthonormalization  ....       0.000 sec  (  0.0%)
DIIS solution               ....       0.193 sec  (  3.6%)
SOSCF solution              ....       0.131 sec  (  2.4%)
Finished LeanSCF after   5.4 sec

Maximum memory used throughout the entire LEANSCF-calculation: 19.3 MB
[psid01:82656] 27 more processes have sent help message help-mpi-btl-openib.txt / ib port not selected
[psid01:82656] Set MCA parameter "orte_base_help_aggregate" to 0 to see all help / error messages
[psid01:82656] 27 more processes have sent help message help-mpi-btl-openib.txt / error in device init


-------------------------------------------------------------------------------
                          DFT DISPERSION CORRECTION                            
                                                                               
                              DFTD3 V3.1  Rev 1                                
                          USING Becke-Johnson damping                          
-------------------------------------------------------------------------------
The B3LYP functional is recognized
Active option DFTDOPT                   ...         4   

molecular C6(AA) [au] = 3694.122605 


            DFT-D V3
 parameters
 s6 scaling factor         :     1.0000 
 a1 scaling factor         :     0.3981 
 s8 scaling factor         :     1.9889 
 a2 scaling factor         :     4.4211 
 ad hoc parameters k1-k3   :    16.0000     1.3333    -4.0000 

 Edisp/kcal,au: -20.169193244237  -0.032141651921 
 E6   /kcal   :  -9.620499050 
 E8   /kcal   : -10.548694194 
 % E8         :  52.301021990 

-------------------------   ----------------
Dispersion correction           -0.032141652
-------------------------   ----------------


-------------------------   --------------------
FINAL SINGLE POINT ENERGY      -402.841894074025
-------------------------   --------------------

--------------------------------------------------------------------------
By default, for Open MPI 4.0 and later, infiniband ports on a device
are not used by default.  The intent is to use UCX for these devices.
You can override this policy by setting the btl_openib_allow_ib MCA parameter
to true.

  Local host:              psid01
  Local adapter:           mlx5_0
  Local port:              1

--------------------------------------------------------------------------
--------------------------------------------------------------------------
WARNING: There was an error initializing an OpenFabrics device.

  Local host:   psid01
  Local device: mlx5_0
--------------------------------------------------------------------------


           ************************************************************
           *        Program running with 28 parallel MPI-processes    *
           *              working on a common directory               *
           ************************************************************
------------------------------------------------------------------------------
                         ORCA SCF GRADIENT CALCULATION
------------------------------------------------------------------------------

Nuc. rep. gradient        (SHARK) ... done (  0.0 sec)
HCore & Overlap gradient  (SHARK) ... done (  0.0 sec)
Split-RIJ-J gradient      (SHARK) ... done (  0.1 sec)
COSX-gradient                     ... done (  1.0 sec)
XC gradient                       ... done (  0.3 sec)
Dispersion correction             ... done (  0.0 sec)

-------------------
DISPERSION GRADIENT
-------------------

   1   N   :   -0.000592555    0.000126662   -0.000160700
   2   C   :    0.000482581   -0.000018016   -0.000025251
   3   C   :   -0.000352507    0.000140966   -0.000222088
   4   C   :    0.000171385   -0.000527994    0.000083882
   5   C   :    0.000142020    0.000541325   -0.000161039
   6   C   :    0.000004233   -0.000490086   -0.000059147
   7   C   :   -0.000090245    0.000580174   -0.000201703
   8   C   :    0.000601240   -0.000037144   -0.000018662
   9   H   :    0.000074391   -0.000357841    0.000093083
  10   H   :    0.000102038    0.000343841   -0.000095351
  11   H   :   -0.000054739   -0.000352422    0.000026337
  12   H   :   -0.000080462    0.000346566   -0.000099680
  13   H   :    0.000284526    0.000073210   -0.000000243
  14   H   :    0.000293232   -0.000058792    0.000087949
  15   H   :    0.000304200   -0.000073570   -0.000127543
  16   H   :   -0.000283970    0.000147419   -0.000098572
  17   H   :   -0.000310287   -0.000045438   -0.000146355
  18   O   :   -0.000312046   -0.000182769    0.000505289
  19   H   :   -0.000132478   -0.000096813    0.000383343
  20   H   :   -0.000250558   -0.000059275    0.000236453

Difference to translation invariance:
           :   -0.0000000000    0.0000000000    0.0000000000

Difference to rotation invariance:
           :   -0.0000000000   -0.0000000000   -0.0000000000

Norm of the Dispersion gradient    ...    0.0020550130
RMS gradient                       ...    0.0002653010
MAX gradient                       ...    0.0006012396

------------------
CARTESIAN GRADIENT
------------------

   1   N   :   -0.000616243    0.000686853   -0.000251649
   2   C   :   -0.000135271   -0.000032940    0.000031220
   3   C   :    0.000054138   -0.000237037   -0.000345139
   4   C   :    0.000649298    0.000028583   -0.000076066
   5   C   :   -0.000003095   -0.000086777    0.000008756
   6   C   :   -0.000340336    0.000283003   -0.000048929
   7   C   :   -0.000005735   -0.000019328   -0.000046144
   8   C   :   -0.000318365    0.000034914   -0.000000753
   9   H   :   -0.000366905   -0.000135194    0.000080015
  10   H   :   -0.000038919    0.000013858   -0.000008434
  11   H   :    0.000179702   -0.000108057    0.000018181
  12   H   :   -0.000087850   -0.000074235    0.000036314
  13   H   :    0.000114930    0.000147665    0.000010076
  14   H   :    0.000079503   -0.000059728    0.000086964
  15   H   :    0.000101194   -0.000072867   -0.000125653
  16   H   :   -0.000476821   -0.000652809    0.000395165
  17   H   :    0.001304294    0.001097452    0.000728174
  18   O   :   -0.001369318    0.001975958    0.001122630
  19   H   :    0.000315567   -0.000290536   -0.000218581
  20   H   :    0.000960233   -0.002498779   -0.001396146

Difference to translation invariance:
           :   -0.0000000000   -0.0000000001    0.0000000001

Difference to rotation invariance:
           :   -0.0000371860    0.0000211622    0.0000806373

Norm of the Cartesian gradient     ...    0.0047737486
RMS gradient                       ...    0.0006162883
MAX gradient                       ...    0.0024987786

-------
TIMINGS
-------

Total SCF gradient time     ....        1.481 sec

Densities                   ....       0.001 sec  (  0.0%)
One electron gradient       ....       0.016 sec  (  1.1%)
RI-J Coulomb gradient       ....       0.134 sec  (  9.1%)
COSX gradient               ....       1.029 sec  ( 69.5%)
XC gradient                 ....       0.251 sec  ( 17.0%)

Maximum memory used throughout the entire SCFGRAD-calculation: 30.3 MB
[psid01:82759] 27 more processes have sent help message help-mpi-btl-openib.txt / ib port not selected
[psid01:82759] Set MCA parameter "orte_base_help_aggregate" to 0 to see all help / error messages
[psid01:82759] 27 more processes have sent help message help-mpi-btl-openib.txt / error in device init
------------------------------------------------------------------------------
                         ORCA GEOMETRY RELAXATION STEP
------------------------------------------------------------------------------

Reading the OPT-File                    .... done
Getting information on internals        .... done
Copying old internal coords+grads       .... done
Making the new internal coordinates     .... (2022 redundants) done
Validating the new internal coordinates .... (2022 redundants) done
Calculating the B-matrix                .... done
Calculating the G,G- and P matrices     .... done
Transforming gradient to internals      .... done
Projecting the internal gradient        .... done
Number of atoms                         ....  20
Number of internal coordinates          .... 113
Current Energy                          ....  -402.841894074 Eh
Current gradient norm                   ....     0.004773749 Eh/bohr
Maximum allowed component of the step   ....  0.300
Current trust radius                    ....  0.300
Evaluating the initial hessian          ....  (Almloef) done
Projecting the Hessian                  .... done
Forming the augmented Hessian           .... done
Diagonalizing the augmented Hessian     .... done
Last element of RFO vector              ....  0.999426389
[...]
      dxz     :     0.014960
      dyz     :     0.007179
      dx2y2   :     0.030213
      dxy     :     0.032497

  4 C s       :     2.861203  s :     2.861203
      pz      :     0.982632  p :     3.070454
      px      :     1.050904
      py      :     1.036918
      dz2     :     0.006365  d :     0.091414
      dxz     :     0.014084
      dyz     :     0.008370
      dx2y2   :     0.029564
      dxy     :     0.033031

  5 C s       :     2.862314  s :     2.862314
      pz      :     1.017752  p :     3.109704
      px      :     1.057233
      py      :     1.034719
      dz2     :     0.006323  d :     0.087404
      dxz     :     0.013159
      dyz     :     0.007935
      dx2y2   :     0.027046
      dxy     :     0.032941

  6 C s       :     2.860083  s :     2.860083
      pz      :     1.030814  p :     3.114212
      px      :     1.056610
      py      :     1.026788
      dz2     :     0.006567  d :     0.088072
      dxz     :     0.013529
      dyz     :     0.007071
      dx2y2   :     0.027517
      dxy     :     0.033388

  7 C s       :     2.834955  s :     2.834955
      pz      :     1.064016  p :     3.138174
      px      :     1.014411
      py      :     1.059747
      dz2     :     0.013392  d :     0.072813
      dxz     :     0.013608
      dyz     :     0.013979
      dx2y2   :     0.017763
      dxy     :     0.014071

  8 H s       :     0.909591  s :     0.909591
      pz      :     0.015555  p :     0.066196
      px      :     0.016368
      py      :     0.034272

  9 H s       :     0.910218  s :     0.910218
      pz      :     0.015977  p :     0.066361
      px      :     0.019302
      py      :     0.031082

 10 H s       :     0.908248  s :     0.908248
      pz      :     0.018271  p :     0.071248
      px      :     0.021365
      py      :     0.031612

 11 H s       :     0.911851  s :     0.911851
      pz      :     0.017088  p :     0.067467
      px      :     0.016128
      py      :     0.034251

 12 H s       :     0.910364  s :     0.910364
      pz      :     0.012955  p :     0.063649
      px      :     0.016936
      py      :     0.033759

 13 H s       :     0.905099  s :     0.905099
      pz      :     0.032369  p :     0.063940
      px      :     0.015749
      py      :     0.015822

 14 H s       :     0.903619  s :     0.903619
      pz      :     0.026945  p :     0.063942
      px      :     0.014612
      py      :     0.022386

 15 H s       :     0.809961  s :     0.809961
      pz      :     0.044835  p :     0.119578
      px      :     0.025677
      py      :     0.049066

 16 H s       :     0.801030  s :     0.801030
      pz      :     0.042850  p :     0.121454
      px      :     0.029444
      py      :     0.049160

 17 O s       :     3.435564  s :     3.435564
      pz      :     1.582707  p :     4.701823
      px      :     1.519479
      py      :     1.599637
      dz2     :     0.000540  d :     0.018927
      dxz     :     0.004101
      dyz     :     0.005764
      dx2y2   :     0.007603
      dxy     :     0.000919

 18 H s       :     0.752194  s :     0.752194
      pz      :     0.054049  p :     0.177057
      px      :     0.081315
      py      :     0.041694

 19 H s       :     0.763596  s :     0.763596
      pz      :     0.070439  p :     0.193788
      px      :     0.035722
      py      :     0.087628



                      *****************************
                      * MAYER POPULATION ANALYSIS *
                      *****************************

  NA   - Mulliken gross atomic population
  ZA   - Total nuclear charge
  QA   - Mulliken gross atomic charge
  VA   - Mayer's total valence
  BVA  - Mayer's bonded valence
  FA   - Mayer's free valence

  ATOM       NA         ZA         QA         VA         BVA        FA
  0 N      7.1122     7.0000    -0.1122     3.1679     3.1679     0.0000
  1 C      6.0305     6.0000    -0.0305     3.9487     3.9487     0.0000
  2 C      5.9516     6.0000     0.0484     3.9997     3.9997     0.0000
  3 C      6.0197     6.0000    -0.0197     3.8559     3.8559     0.0000
  4 C      6.0206     6.0000    -0.0206     3.8767     3.8767     0.0000
  5 C      6.0422     6.0000    -0.0422     3.8289     3.8289    -0.0000
  6 C      6.0119     6.0000    -0.0119     3.7969     3.7969     0.0000
  7 C      5.9176     6.0000     0.0824     3.9064     3.9064     0.0000
  8 H      1.0331     1.0000    -0.0331     0.9849     0.9849     0.0000
  9 H      1.0343     1.0000    -0.0343     0.9845     0.9845     0.0000
 10 H      1.0365     1.0000    -0.0365     1.0405     1.0405    -0.0000
 11 H      1.0472     1.0000    -0.0472     0.9846     0.9846     0.0000
 12 H      0.9976     1.0000     0.0024     0.9959     0.9959     0.0000
 13 H      0.9809     1.0000     0.0191     0.9880     0.9880     0.0000
 14 H      0.9765     1.0000     0.0235     0.9862     0.9862     0.0000
 15 H      0.8952     1.0000     0.1048     1.0023     1.0023     0.0000
 16 H      0.8698     1.0000     0.1302     0.9902     0.9902     0.0000
 17 O      8.3082     8.0000    -0.3082     2.0619     2.0619     0.0000
 18 H      0.8505     1.0000     0.1495     1.0168     1.0168    -0.0000
 19 H      0.8641     1.0000     0.1359     1.0831     1.0831     0.0000

  Mayer bond orders larger than 0.100000
B(  0-N ,  2-C ) :   1.1260 B(  0-N , 15-H ) :   0.9491 B(  0-N , 16-H ) :   0.9429 
B(  0-N , 19-H ) :   0.1116 B(  1-C ,  3-C ) :   1.3653 B(  1-C ,  4-C ) :   1.3991 
B(  1-C ,  7-C ) :   1.0650 B(  2-C ,  5-C ) :   1.3479 B(  2-C ,  6-C ) :   1.3646 
B(  3-C ,  5-C ) :   1.3843 B(  3-C ,  8-H ) :   0.9861 B(  4-C ,  6-C ) :   1.3639 
B(  4-C ,  9-H ) :   0.9789 B(  5-C , 10-H ) :   0.9792 B(  6-C , 11-H ) :   0.9832 
B(  7-C , 12-H ) :   0.9588 B(  7-C , 13-H ) :   0.9558 B(  7-C , 14-H ) :   0.9543 
B( 17-O , 18-H ) :   1.0023 B( 17-O , 19-H ) :   0.9627 

-------
TIMINGS
-------

Total SCF time: 0 days 0 hours 0 min 3 sec 

Total time                  ....       3.551 sec
Sum of individual times     ....       3.392 sec  ( 95.5%)

SCF preparation             ....       0.862 sec  ( 24.3%)
Fock matrix formation       ....       2.118 sec  ( 59.6%)
  Startup                   ....       0.045 sec  (  2.1% of F)
  Split-RI-J                ....       0.177 sec  (  8.3% of F)
  Chain of spheres X        ....       1.162 sec  ( 54.9% of F)
  XC integration            ....       0.612 sec  ( 28.9% of F)
    Basis function eval.    ....       0.072 sec  ( 11.8% of XC)
    Density eval.           ....       0.028 sec  (  4.6% of XC)
    XC-Functional eval.     ....       0.019 sec  (  3.1% of XC)
    XC-Potential eval.      ....       0.034 sec  (  5.5% of XC)
Diagonalization             ....       0.000 sec  (  0.0%)
Density matrix formation    ....       0.087 sec  (  2.5%)
Total Energy calculation    ....       0.043 sec  (  1.2%)
Population analysis         ....       0.132 sec  (  3.7%)
Orbital Transformation      ....       0.029 sec  (  0.8%)
Orbital Orthonormalization  ....       0.000 sec  (  0.0%)
DIIS solution               ....       0.025 sec  (  0.7%)
SOSCF solution              ....       0.096 sec  (  2.7%)
Finished LeanSCF after   3.7 sec

Maximum memory used throughout the entire LEANSCF-calculation: 23.2 MB
[psid01:99537] 27 more processes have sent help message help-mpi-btl-openib.txt / ib port not selected
[psid01:99537] Set MCA parameter "orte_base_help_aggregate" to 0 to see all help / error messages
[psid01:99537] 27 more processes have sent help message help-mpi-btl-openib.txt / error in device init


-------------------------------------------------------------------------------
                          DFT DISPERSION CORRECTION                            
                                                                               
                              DFTD3 V3.1  Rev 1                                
                          USING Becke-Johnson damping                          
-------------------------------------------------------------------------------
The B3LYP functional is recognized
Active option DFTDOPT                   ...         4   

molecular C6(AA) [au] = 3694.219425 


            DFT-D V3
 parameters
 s6 scaling factor         :     1.0000 
 a1 scaling factor         :     0.3981 
 s8 scaling factor         :     1.9889 
 a2 scaling factor         :     4.4211 
 ad hoc parameters k1-k3   :    16.0000     1.3333    -4.0000 

 Edisp/kcal,au: -20.168680893602  -0.032140835439 
 E6   /kcal   :  -9.618331385 
 E8   /kcal   : -10.550349508 
 % E8         :  52.310557958 

-------------------------   ----------------
Dispersion correction           -0.032140835
-------------------------   ----------------


-------------------------   --------------------
FINAL SINGLE POINT ENERGY      -402.842364881473
-------------------------   --------------------

                                *** OPTIMIZATION RUN DONE ***

--------------------------------------------------------------------------
By default, for Open MPI 4.0 and later, infiniband ports on a device
are not used by default.  The intent is to use UCX for these devices.
You can override this policy by setting the btl_openib_allow_ib MCA parameter
to true.

  Local host:              psid01
  Local adapter:           mlx5_0
  Local port:              1

--------------------------------------------------------------------------
--------------------------------------------------------------------------
WARNING: There was an error initializing an OpenFabrics device.

  Local host:   psid01
  Local device: mlx5_0
--------------------------------------------------------------------------


           ************************************************************
           *        Program running with 28 parallel MPI-processes    *
           *              working on a common directory               *
           ************************************************************

------------------------------------------------------------------------------
                              ORCA PROPERTY CALCULATIONS
------------------------------------------------------------------------------

GBWName                                 ... p_toluidine_water_2_OPT.gbw
Number of atoms                         ...     20
Number of basis functions               ...    181
Max core memory                         ...   4000 MB

Electric properties:
Dipole moment                           ... YES
Quadrupole moment                       ...  NO
Static polarizability (Dipole/Dipole)   ...  NO
Static polarizability (Dipole/Quad.)    ...  NO
Static polarizability (Quad./Quad.)     ...  NO
Static polarizability (Velocity)        ...  NO

Atomic electric properties:
Dipole moment                           ...  NO
Quadrupole moment                       ...  NO
Static polarizability                   ...  NO

Choice of electric origin               ... Center of mass
Position of electric origin             ...    -0.944238     0.014193     0.828084

General magnetic properties:
Magnetizability                         ...  NO

EPR properties:
g-Tensor (aka g-matrix)                 ...  NO
Zero-Field splitting spin-orbit         ...  NO
Zero-field splitting spin-spin          ...  NO
Hyperfine couplings                     ...  NO (   0 nuclei)
Quadrupole couplings                    ...  NO (   0 nuclei)
Contact density                         ...  NO (   0 nuclei)

NMR properties:
Chemical shifts                         ...  NO (   0 nuclei)
Spin-rotation constants                 ...  NO (   0 nuclei)
Spin-spin couplings                     ...  NO (   0 nuclei,    0 pairs)

Choice of magnetic origin               ... GIAO
Position of magnetic origin             ...     0.000000     0.000000     0.000000

Properties with geometric perturbations:
SCF Hessian                             ...  NO
IR spectrum                             ...  NO
VCD spectrum                            ...  NO
X-ray spectroscopy properties:
SCF XES/XAS/RIXS spectra                ...  NO


-------------
DIPOLE MOMENT
-------------

Method             : SCF
Type of density    : Electron Density
Multiplicity       :   1
Irrep              :   0
Energy             :  -402.8102240460345911 Eh
Relativity type    : 
Basis              : AO
                                X                 Y                 Z
Electronic contribution:     -2.444038880       0.692168960      -0.878076301
Nuclear contribution   :      2.725044042      -0.096435411       0.206662549
                        -----------------------------------------
Total Dipole Moment    :      0.281005162       0.595733549      -0.671413752
                        -----------------------------------------
Magnitude (a.u.)       :      0.940563016
Magnitude (Debye)      :      2.390721194



--------------------
Rotational spectrum 
--------------------
 
Rotational constants in cm-1:             0.098161             0.029794             0.024458 
Rotational constants in MHz :          2942.797819           893.189633           733.224414 

Dipole components along the rotational axes: 
x,y,z [a.u.] :    -0.561454    -0.740669     0.144354 
x,y,z [Debye]:    -1.427103    -1.882630     0.366919 

 

Dipole moment calculation done in   0.0 sec 

Maximum memory used throughout the entire PROP-calculation: 12.7 MB
[psid01:99634] 27 more processes have sent help message help-mpi-btl-openib.txt / ib port not selected
[psid01:99634] Set MCA parameter "orte_base_help_aggregate" to 0 to see all help / error messages
[psid01:99634] 27 more processes have sent help message help-mpi-btl-openib.txt / error in device init
--------------------------------------------------------------------------
By default, for Open MPI 4.0 and later, infiniband ports on a device
are not used by default.  The intent is to use UCX for these devices.
You can override this policy by setting the btl_openib_allow_ib MCA parameter
to true.

  Local host:              psid01
  Local adapter:           mlx5_0
  Local port:              1

--------------------------------------------------------------------------
--------------------------------------------------------------------------
WARNING: There was an error initializing an OpenFabrics device.

  Local host:   psid01
  Local device: mlx5_0
--------------------------------------------------------------------------
[psid01:99722] 27 more processes have sent help message help-mpi-btl-openib.txt / ib port not selected
[psid01:99722] Set MCA parameter "orte_base_help_aggregate" to 0 to see all help / error messages
[psid01:99722] 27 more processes have sent help message help-mpi-btl-openib.txt / error in device init

--------------------------------
SUGGESTED CITATIONS FOR THIS RUN
--------------------------------

Below you find a list of papers that are relevant to this ORCA run
We neither can nor want to force you to cite these papers, but we appreciate if you do
You receive ORCA, which is the product of decades of hard work by many enthusiastic individuals, for free
The only thing we kindly ask in return is that you cite our papers,
We deeply appreciate it, if you show your appreciation for ORCA by not just citing the generic ORCA reference.

Please note that relegating all ORCA citations to the supporting information does *not* help us.
SI sections are not indexed - citations you put there will not count into any citation statistics
But we need these citations in order to attract the funding resources that allow us to do what we are doing

Therefore, if you are a happy ORCA user, please consider citing a few of the papers listed below in the main body of your paper

In addition to the list printed below, the program has created the file p_toluidine_water_2_OPT.bibtex that contains the list in bibtex format
You can import this file easily into all common literature databanks and citation aid programs


List of essential papers. We consider these as the minimum necessary citations

  1. Neese,F.
     Software update: the ORCA program system, version 5.0
     WIRES Comput. Molec. Sci., 2022 12(1)e1606
     doi.org/10.1002/wcms.1606

List of papers to cite with high priority. The work reported in these papers was absolutely
necessary for this run to complete.
Our perspective: the developers of density functionals and basis sets usually get cited in chemistry papers
Good! But without the algorithms to do something with them, the functionals or basis sets would not do anything.
Hence, in our opinion, the algorithm design and method developments papers are equally worthy of getting cited

  1. Neese,F.
     An improvement of the resolution of the identity approximation for the formation of the Coulomb matrix
     J. Comp. Chem., 2003 24(14)1740-1747
     doi.org/10.1002/jcc.10318
  2. Neese,F.; Wennmohs,F.; Hansen,A.; Becker,U.
     Efficient, approximate and parallel Hartree-Fock and hybrid DFT calculations. A 'chain-of-spheres' algorithm for the Hartree-Fock exchange
     Chem. Phys., 2009 356(1-3)98-109
     doi.org/10.1016/j.chemphys.2008.10.036
  3. Helmich-Paris,B.; de Souza,B.; Neese,F.; Izsák,R.
     An improved chain of spheres for exchange algorithm
     J. Chem. Phys., 2021 155 104109
     doi.org/doi: 10.1063/5.0058766.
  4. Neese,F.
     The SHARK Integral Generation and Digestion System
     J. Comp. Chem., 2022  1-16
     doi.org/10.1002/jcc.26942
  5. Grimme,S.; Antony,J.; Ehrlich,S.; Krieg,H.
     A consistent and accurate ab initio parametrization of density functional dispersion correction (DFT-D) for the 94 elements H-Pu
     J. Chem. Phys., 2010 132 154104
     doi.org/10.1063/1.3382344
  6. Grimme,S.; Ehrlich,S.; Goerigk,L.
     Effect of the damping function in dispersion corrected density functional theory
     J. Comput. Chem., 2011 32(7)1456-1465
     doi.org/10.1002/jcc.21759

List of suggested additional citations. These are papers that are important in the 'surrounding' of 
of this run, or papers that preceded the highly important papers. If you like your results we are grateful for a citation.

  1. Izsak,R.; Neese,F.
     An overlap fitted chain of spheres exchange method
     J. Chem. Phys., 2011 135 144105
     doi.org/10.1063/1.3646921
  2. Izsak,R.; Hansen,A.; Neese,F.
     The resolution of identity and chain of spheres approximations for the LPNO-CCSD singles Fock term
     Molec. Phys., 2012 110 2413-2417
     doi.org/10.1080/00268976.2012.687466
  3. Neese,F.
     The ORCA program system
     WIRES Comput. Molec. Sci., 2012 2(1)73-78
     doi.org/10.1002/wcms.81
  4. Izsak,R.; Neese,F.; Klopper,W.
     Robust fitting techniques in the chain of spheres approximation to the Fock exchange: The role of the complementary space
     J. Chem. Phys., 2013 139 
     doi.org/10.1063/1.4819264
  5. Neese,F.
     Software update: the ORCA program system, version 4.0
     WIRES Comput. Molec. Sci., 2018 8(1)1-6
     doi.org/10.1002/wcms.1327
  6. Neese,F.; Wennmohs,F.; Becker,U.; Riplinger,C.
     The ORCA quantum chemistry program package
     J. Chem. Phys., 2020 152 Art. No. L224108
     doi.org/10.1063/5.0004608

List of optional additional citations

  1. Neese,F.
     Approximate second-order SCF convergence for spin unrestricted wavefunctions
     Chem. Phys. Lett., 2000 325(1-3)93-98
     doi.org/10.1016/s0009-2614(00)00662-x

Timings for individual modules:

Sum of individual times          ...      322.281 sec (=   5.371 min)
Startup calculation              ...       63.443 sec (=   1.057 min)  19.7 %
SCF iterations                   ...      171.306 sec (=   2.855 min)  53.2 %
Property calculations            ...        0.881 sec (=   0.015 min)   0.3 %
SCF Gradient evaluation          ...       86.233 sec (=   1.437 min)  26.8 %
Geometry relaxation              ...        0.417 sec (=   0.007 min)   0.1 %
                             ****ORCA TERMINATED NORMALLY****
TOTAL RUN TIME: 0 days 0 hours 6 minutes 14 seconds 915 msec
