--------------------------------------------------------------------------
By default, for Open MPI 4.0 and later, infiniband ports on a device
are not used by default.  The intent is to use UCX for these devices.
You can override this policy by setting the btl_openib_allow_ib MCA parameter
to true.

  Local host:              psid10
  Local adapter:           mlx4_0
  Local port:              1

--------------------------------------------------------------------------
--------------------------------------------------------------------------
WARNING: There was an error initializing an OpenFabrics device.

  Local host:   psid10
  Local device: mlx4_0
--------------------------------------------------------------------------

     Program PWSCF v.7.3.1 starts on 11Feb2025 at 14:13:46 

     This program is part of the open-source Quantum ESPRESSO suite
     for quantum simulation of materials; please cite
         "P. Giannozzi et al., J. Phys.:Condens. Matter 21 395502 (2009);
         "P. Giannozzi et al., J. Phys.:Condens. Matter 29 465901 (2017);
         "P. Giannozzi et al., J. Chem. Phys. 152 154105 (2020);
          URL http://www.quantum-espresso.org", 
     in publications or presentations arising from this work. More details at
     http://www.quantum-espresso.org/quote

     Parallel version (MPI), running on    32 processors

     MPI processes distributed on     1 nodes
     149560 MiB available memory on the printing compute node when the environment starts

     Waiting for input...
     Reading input from standard input
Warning: card &CELL ignored
Warning: card / ignored

     Current dimensions of program PWSCF are:
     Max number of different atomic species (ntypx) = 10
     Max number of k-points (npk) =  40000
     Max angular momentum in pseudopotentials (lmaxx) =  4
     file C.pbe-n-kjpaw_psl.1.0.0.UPF: wavefunction(s)  2S 2P renormalized

     gamma-point specific algorithms are used

     R & G space division:  proc/nbgrp/npool/nimage =      32
     Subspace diagonalization in iterative solution of the eigenvalue problem:
     one sub-group per band group will be used
     custom distributed-memory algorithm (size of sub-group:  5*  5 procs)


     Parallelization info
     --------------------
     sticks:   dense  smooth     PW     G-vecs:    dense   smooth      PW
     Min         848     338     83               186625    47204    5895
     Max         851     340     86               186636    47228    5906
     Sum       27147   10875   2721              5972159  1511005  188779

     Using Slab Decomposition



     bravais-lattice index     =           14
     lattice parameter (alat)  =      27.6269  a.u.
     unit-cell volume          =   31632.2292 (a.u.)^3
     number of atoms/cell      =           75
     number of atomic types    =            4
     number of electrons       =      1244.00
     number of Kohn-Sham states=          746
     kinetic-energy cutoff     =      50.0000  Ry
     charge density cutoff     =     500.0000  Ry
     scf convergence threshold =      1.0E-06
     mixing beta               =       0.7000
     number of iterations used =            8  plain     mixing
     energy convergence thresh.=      1.0E-04
     force convergence thresh. =      1.0E-03
     Exchange-correlation= PBE
                           (   1   4   3   4   0   0   0)
     nstep                     =          100


     celldm(1)=  27.626851  celldm(2)=   0.894135  celldm(3)=   1.937323
     celldm(4)=  -0.500000  celldm(5)=   0.000000  celldm(6)=   0.000000

     crystal axes: (cart. coord. in units of alat)
               a(1) = (   1.000000   0.000000   0.000000 )  
               a(2) = (   0.000000   0.894135   0.000000 )  
               a(3) = (   0.000000  -0.968662   1.677771 )  

     reciprocal axes: (cart. coord. in units 2 pi/alat)
               b(1) = (  1.000000 -0.000000 -0.000000 )  
               b(2) = ( -0.000000  1.118400  0.645708 )  
               b(3) = (  0.000000  0.000000  0.596029 )  


     PseudoPot. # 1 for Zn read from file:
     /home/ys/qe-7.3.1/pseudo/Standard_solid-state_pseudopotentials_SSSP_1.3.0_PBE_efficiency/Zn_pbe_v1.uspp.F.UPF
     MD5 check sum: df62231357ef9e81f77b2b3087fa5675
     Pseudo is Ultrasoft, Zval = 20.0
     Generated by new atomic code, or converted to UPF format
     Using radial grid of  943 points,  6 beta functions with: 
                l(1) =   0
                l(2) =   0
                l(3) =   1
                l(4) =   1
                l(5) =   2
                l(6) =   2
     Q(r) pseudized with  8 coefficients,  rinner =    1.100   1.100   1.100
                                                       1.100   1.100

     PseudoPot. # 2 for C  read from file:
     /home/ys/qe-7.3.1/pseudo/Standard_solid-state_pseudopotentials_SSSP_1.3.0_PBE_efficiency/C.pbe-n-kjpaw_psl.1.0.0.UPF
     MD5 check sum: 5d2aebdfa2cae82b50a7e79e9516da0f
     Pseudo is Projector augmented-wave + core cor, Zval =  4.0
     Generated using "atomic" code by A. Dal Corso  v.5.1
     Shape of augmentation charge: PSQ
     Using radial grid of 1073 points,  4 beta functions with: 
                l(1) =   0
                l(2) =   0
                l(3) =   1
                l(4) =   1
     Q(r) pseudized with 0 coefficients 


     PseudoPot. # 3 for N  read from file:
     /home/ys/qe-7.3.1/pseudo/Standard_solid-state_pseudopotentials_SSSP_1.3.0_PBE_efficiency/N.pbe-n-radius_5.UPF
     MD5 check sum: 16739722b17309cd8fe442a2ace49922
     Pseudo is Ultrasoft + core correction, Zval =  5.0
     Generated using "atomic" code by A. Dal Corso  v.5.1
     Using radial grid of 1085 points,  4 beta functions with: 
                l(1) =   0
                l(2) =   0
                l(3) =   1
                l(4) =   1
     Q(r) pseudized with 0 coefficients 


     PseudoPot. # 4 for H  read from file:
     /home/ys/qe-7.3.1/pseudo/Standard_solid-state_pseudopotentials_SSSP_1.3.0_PBE_efficiency/H.pbe-rrkjus_psl.1.0.0.UPF
     MD5 check sum: f52b6d4d1c606e5624b1dc7b2218f220
     Pseudo is Ultrasoft, Zval =  1.0
     Generated using "atomic" code by A. Dal Corso  v.5.1
     Using radial grid of  929 points,  2 beta functions with: 
                l(1) =   0
                l(2) =   0
     Q(r) pseudized with 0 coefficients 


     atomic species   valence    mass     pseudopotential
     Zn               20.00    65.39000     Zn( 1.00)
     C                 4.00    12.01070     C ( 1.00)
     N                 5.00    14.00674     N ( 1.00)
     H                 1.00     1.00794     H ( 1.00)

     No symmetry found



   Cartesian axes

     site n.     atom                  positions (alat units)
         1        Zn     tau(   1) = (   0.0833329   0.0894128   0.0516234  )
         2        Zn     tau(   2) = (   0.0833329   0.2682397   0.0516234  )
         3        Zn     tau(   3) = (   0.0833329   0.4470667   0.0516234  )
         4        Zn     tau(   4) = (   0.0833329   0.6258936   0.0516234  )
         5        Zn     tau(   5) = (   0.0833329   0.8047205   0.0516234  )
         6        Zn     tau(   6) = (   0.4166665   0.0894128   0.0516234  )
         7        Zn     tau(   7) = (   0.4166665   0.2682397   0.0516234  )
         8        Zn     tau(   8) = (   0.4166665   0.4470667   0.0516234  )
         9        Zn     tau(   9) = (   0.4166665   0.6258936   0.0516234  )
        10        Zn     tau(  10) = (   0.4166665   0.8047205   0.0516234  )
        11        Zn     tau(  11) = (   0.7499991   0.0894128   0.0516234  )
        12        Zn     tau(  12) = (   0.7499991   0.2682397   0.0516234  )
        13        Zn     tau(  13) = (   0.7499991   0.4470667   0.0516234  )
        14        Zn     tau(  14) = (   0.7499991   0.6258936   0.0516234  )
        15        Zn     tau(  15) = (   0.7499991   0.8047205   0.0516234  )
        16        Zn     tau(  16) = (   0.0833329  -0.0000005   0.2064919  )
        17        Zn     tau(  17) = (   0.0833329   0.1788264   0.2064919  )
        18        Zn     tau(  18) = (   0.0833329   0.3576533   0.2064919  )
        19        Zn     tau(  19) = (   0.0833329   0.5364802   0.2064919  )
        20        Zn     tau(  20) = (   0.0833329   0.7153071   0.2064919  )
        21        Zn     tau(  21) = (   0.4166665  -0.0000005   0.2064919  )
        22        Zn     tau(  22) = (   0.4166665   0.1788264   0.2064919  )
        23        Zn     tau(  23) = (   0.4166665   0.3576533   0.2064919  )
        24        Zn     tau(  24) = (   0.4166665   0.5364802   0.2064919  )
        25        Zn     tau(  25) = (   0.4166665   0.7153071   0.2064919  )
        26        Zn     tau(  26) = (   0.7499991  -0.0000005   0.2064919  )
        27        Zn     tau(  27) = (   0.7499991   0.1788264   0.2064919  )
        28        Zn     tau(  28) = (   0.7499991   0.3576533   0.2064919  )
        29        Zn     tau(  29) = (   0.7499991   0.5364802   0.2064919  )
        30        Zn     tau(  30) = (   0.7499991   0.7153071   0.2064919  )
        31        Zn     tau(  31) = (   0.2499997   0.0000007   0.1032451  )
        32        Zn     tau(  32) = (   0.2499997   0.1788276   0.1032451  )
        33        Zn     tau(  33) = (   0.2499997   0.3576545   0.1032451  )
        34        Zn     tau(  34) = (   0.2499997   0.5364814   0.1032451  )
        35        Zn     tau(  35) = (   0.2499997   0.7153083   0.1032451  )
        36        Zn     tau(  36) = (   0.5833323   0.0000007   0.1032451  )
        37        Zn     tau(  37) = (   0.5833323   0.1788276   0.1032451  )
        38        Zn     tau(  38) = (   0.5833323   0.3576545   0.1032451  )
        39        Zn     tau(  39) = (   0.5833323   0.5364814   0.1032451  )
        40        Zn     tau(  40) = (   0.5833323   0.7153083   0.1032451  )
        41        Zn     tau(  41) = (   0.9166659   0.0000007   0.1032451  )
        42        Zn     tau(  42) = (   0.9166659   0.1788276   0.1032451  )
        43        Zn     tau(  43) = (   0.9166659   0.3576545   0.1032451  )
        44        Zn     tau(  44) = (   0.9166659   0.5364814   0.1032451  )
        45        Zn     tau(  45) = (   0.9166659   0.7153083   0.1032451  )
        46        Zn     tau(  46) = (   0.2499997  -0.0894127   0.2581137  )
        47        Zn     tau(  47) = (   0.2499997   0.0894142   0.2581137  )
        48        Zn     tau(  48) = (   0.2499997   0.2682411   0.2581137  )
        49        Zn     tau(  49) = (   0.2499997   0.4470680   0.2581137  )
        50        Zn     tau(  50) = (   0.2499997   0.6258949   0.2581137  )
        51        Zn     tau(  51) = (   0.5833323  -0.0894127   0.2581137  )
        52        Zn     tau(  52) = (   0.5833323   0.0894142   0.2581137  )
        53        Zn     tau(  53) = (   0.5833323   0.2682411   0.2581137  )
        54        Zn     tau(  54) = (   0.5833323   0.4470680   0.2581137  )
        55        Zn     tau(  55) = (   0.5833323   0.6258949   0.2581137  )
        56        Zn     tau(  56) = (   0.9166659  -0.0894127   0.2581137  )
        57        Zn     tau(  57) = (   0.9166659   0.0894142   0.2581137  )
        58        Zn     tau(  58) = (   0.9166659   0.2682411   0.2581137  )
        59        Zn     tau(  59) = (   0.9166659   0.4470680   0.2581137  )
        60        Zn     tau(  60) = (   0.9166659   0.6258949   0.2581137  )
        61        C      tau(  61) = (   0.5486433   0.1985343   0.7613734  )
        62        C      tau(  62) = (   0.5544963   0.2257828   0.6680423  )
        63        C      tau(  63) = (   0.4942274   0.2918850   0.6321782  )
        64        C      tau(  64) = (   0.6206822   0.1872302   0.6095518  )
        65        C      tau(  65) = (   0.4998634   0.3184549   0.5413822  )
        66        C      tau(  66) = (   0.6264342   0.2136947   0.5187339  )
        67        C      tau(  67) = (   0.5661233   0.2799285   0.4826266  )
        68        N      tau(  68) = (   0.5438453   0.1761817   0.8379034  )
        69        N      tau(  69) = (   0.5717363   0.3061083   0.3929009  )
        70        H      tau(  70) = (   0.5288613   0.3534754   0.3668283  )
        71        H      tau(  71) = (   0.6190273   0.2788500   0.3506865  )
        72        H      tau(  72) = (   0.6677691   0.1360258   0.6362837  )
        73        H      tau(  73) = (   0.4426815   0.3223256   0.6765671  )
        74        H      tau(  74) = (   0.6781631   0.1830622   0.4744575  )
        75        H      tau(  75) = (   0.4525755   0.3697659   0.5148281  )

     number of k points=     1  Gaussian smearing, width (Ry)=  0.0100
                       cart. coord. in units 2pi/alat
        k(    1) = (   0.0000000   0.0000000   0.0000000), wk =   2.0000000

     Dense  grid:  2986080 G-vectors     FFT dimensions: ( 200, 180, 384)

     Smooth grid:   755503 G-vectors     FFT dimensions: ( 125, 120, 243)

     Estimated max dynamical RAM per process >     688.86 MB

     Estimated total dynamical RAM >      21.53 GB

     Initial potential from superposition of free atoms

     starting charge    1243.9912, renormalised to    1244.0000

     negative rho (up, down):  2.517E-03 0.000E+00
[psid10:187648] 31 more processes have sent help message help-mpi-btl-openib.txt / ib port not selected
[psid10:187648] Set MCA parameter "orte_base_help_aggregate" to 0 to see all help / error messages
[psid10:187648] 31 more processes have sent help message help-mpi-btl-openib.txt / error in device init
     Starting wfcs are  822 randomized atomic wfcs
     Checking if some PAW data can be deallocated... 

     total cpu time spent up to now is       36.1 secs

     Self-consistent Calculation

     iteration #  1     ecut=    50.00 Ry     beta= 0.70
     Davidson diagonalization with overlap
     ethr =  1.00E-02,  avg # of iterations =  7.0

     Threshold (ethr) on eigenvalues was too large:
     Diagonalizing with lowered threshold

     Davidson diagonalization with overlap
     ethr =  7.87E-04,  avg # of iterations =  2.0

     negative rho (up, down):  1.369E-03 0.000E+00

     total cpu time spent up to now is      256.8 secs

     total energy              =  -27861.56145227 Ry
     estimated scf accuracy    <       9.94584171 Ry

     iteration #  2     ecut=    50.00 Ry     beta= 0.70
     Davidson diagonalization with overlap
     ethr =  8.00E-04,  avg # of iterations = 13.0

     negative rho (up, down):  3.682E-03 0.000E+00

     total cpu time spent up to now is      404.9 secs

     total energy              =  -27834.23052201 Ry
     estimated scf accuracy    <     453.69804794 Ry

     iteration #  3     ecut=    50.00 Ry     beta= 0.70
     Davidson diagonalization with overlap
     ethr =  8.00E-04,  avg # of iterations = 10.0

     negative rho (up, down):  2.283E-03 0.000E+00

     total cpu time spent up to now is      669.4 secs

     total energy              =  -27866.05939526 Ry
     estimated scf accuracy    <      16.67883348 Ry

     iteration #  4     ecut=    50.00 Ry     beta= 0.70
     Davidson diagonalization with overlap
     ethr =  8.00E-04,  avg # of iterations =  5.0

     negative rho (up, down):  2.326E-03 0.000E+00

     total cpu time spent up to now is      780.4 secs

     total energy              =  -27867.42457705 Ry
     estimated scf accuracy    <      10.06107471 Ry

     iteration #  5     ecut=    50.00 Ry     beta= 0.70
     Davidson diagonalization with overlap
     ethr =  8.00E-04,  avg # of iterations =  3.0

     negative rho (up, down):  2.387E-03 0.000E+00

     total cpu time spent up to now is      885.0 secs

     total energy              =  -27867.96157650 Ry
     estimated scf accuracy    <       4.57374550 Ry

     iteration #  6     ecut=    50.00 Ry     beta= 0.70
     Davidson diagonalization with overlap
     ethr =  3.68E-04,  avg # of iterations =  2.0

     negative rho (up, down):  2.333E-03 0.000E+00

     total cpu time spent up to now is      988.5 secs

     total energy              =  -27868.30327386 Ry
     estimated scf accuracy    <       0.76476087 Ry

     iteration #  7     ecut=    50.00 Ry     beta= 0.70
     Davidson diagonalization with overlap
     ethr =  6.15E-05,  avg # of iterations =  7.0

     negative rho (up, down):  2.346E-03 0.000E+00

     total cpu time spent up to now is     1096.0 secs

     total energy              =  -27868.33056981 Ry
     estimated scf accuracy    <       0.20523385 Ry

     iteration #  8     ecut=    50.00 Ry     beta= 0.70
     Davidson diagonalization with overlap
     ethr =  1.65E-05,  avg # of iterations = 18.0

     negative rho (up, down):  2.361E-03 0.000E+00

     total cpu time spent up to now is     1213.5 secs

     total energy              =  -27868.32212869 Ry
     estimated scf accuracy    <       0.32554356 Ry

     iteration #  9     ecut=    50.00 Ry     beta= 0.70
     Davidson diagonalization with overlap
     ethr =  1.65E-05,  avg # of iterations =  8.0

     negative rho (up, down):  2.384E-03 0.000E+00

     total cpu time spent up to now is     1322.4 secs

     total energy              =  -27868.32047821 Ry
     estimated scf accuracy    <       0.72535805 Ry

     iteration # 10     ecut=    50.00 Ry     beta= 0.70
     Davidson diagonalization with overlap
     ethr =  1.65E-05,  avg # of iterations =  7.0

     negative rho (up, down):  2.382E-03 0.000E+00

     total cpu time spent up to now is     1429.4 secs

     total energy              =  -27868.34914249 Ry
     estimated scf accuracy    <       0.12133099 Ry

     iteration # 11     ecut=    50.00 Ry     beta= 0.70
     Davidson diagonalization with overlap
     ethr =  9.75E-06,  avg # of iterations =  3.0

     negative rho (up, down):  2.408E-03 0.000E+00

     total cpu time spent up to now is     1533.9 secs

     total energy              =  -27868.34336684 Ry
     estimated scf accuracy    <       0.02990781 Ry

     iteration # 12     ecut=    50.00 Ry     beta= 0.70
     Davidson diagonalization with overlap
     ethr =  2.40E-06,  avg # of iterations = 19.0

     negative rho (up, down):  2.383E-03 0.000E+00

     total cpu time spent up to now is     1667.9 secs

     total energy              =  -27868.34717304 Ry
     estimated scf accuracy    <       0.01835471 Ry

     iteration # 13     ecut=    50.00 Ry     beta= 0.70
     Davidson diagonalization with overlap
     ethr =  1.48E-06,  avg # of iterations =  3.0

     negative rho (up, down):  2.377E-03 0.000E+00

     total cpu time spent up to now is     1782.4 secs

     total energy              =  -27868.34714336 Ry
     estimated scf accuracy    <       0.00536637 Ry

     iteration # 14     ecut=    50.00 Ry     beta= 0.70
     Davidson diagonalization with overlap
     ethr =  4.31E-07,  avg # of iterations = 17.0

     negative rho (up, down):  2.388E-03 0.000E+00

     total cpu time spent up to now is     1927.7 secs

     total energy              =  -27868.34122943 Ry
     estimated scf accuracy    <       0.13779456 Ry

     iteration # 15     ecut=    50.00 Ry     beta= 0.70
     Davidson diagonalization with overlap
     ethr =  4.31E-07,  avg # of iterations =  7.0

     negative rho (up, down):  2.386E-03 0.000E+00

     total cpu time spent up to now is     2044.1 secs

     total energy              =  -27868.34969598 Ry
     estimated scf accuracy    <       0.00079871 Ry

     iteration # 16     ecut=    50.00 Ry     beta= 0.70
     Davidson diagonalization with overlap
     ethr =  6.42E-08,  avg # of iterations =  3.0

     negative rho (up, down):  2.385E-03 0.000E+00

     total cpu time spent up to now is     2153.6 secs

     total energy              =  -27868.34964592 Ry
     estimated scf accuracy    <       0.00228381 Ry

     iteration # 17     ecut=    50.00 Ry     beta= 0.70
     Davidson diagonalization with overlap
     ethr =  6.42E-08,  avg # of iterations =  2.0

     negative rho (up, down):  2.385E-03 0.000E+00

     total cpu time spent up to now is     2255.6 secs

     total energy              =  -27868.34982420 Ry
     estimated scf accuracy    <       0.00031196 Ry

     iteration # 18     ecut=    50.00 Ry     beta= 0.70
     Davidson diagonalization with overlap
     ethr =  2.51E-08,  avg # of iterations =  2.0

     negative rho (up, down):  2.386E-03 0.000E+00

     total cpu time spent up to now is     2357.8 secs

     total energy              =  -27868.34984756 Ry
     estimated scf accuracy    <       0.00002289 Ry

     iteration # 19     ecut=    50.00 Ry     beta= 0.70
     Davidson diagonalization with overlap
     ethr =  1.84E-09,  avg # of iterations =  2.0

     negative rho (up, down):  2.386E-03 0.000E+00

     total cpu time spent up to now is     2462.5 secs

     total energy              =  -27868.34984872 Ry
     estimated scf accuracy    <       0.00003416 Ry

     iteration # 20     ecut=    50.00 Ry     beta= 0.70
     Davidson diagonalization with overlap
     ethr =  1.84E-09,  avg # of iterations =  2.0

     negative rho (up, down):  2.386E-03 0.000E+00

     total cpu time spent up to now is     2564.0 secs

     total energy              =  -27868.34985175 Ry
     estimated scf accuracy    <       0.00000882 Ry

     iteration # 21     ecut=    50.00 Ry     beta= 0.70
     Davidson diagonalization with overlap
     ethr =  7.09E-10,  avg # of iterations =  2.0

     negative rho (up, down):  2.386E-03 0.000E+00

     total cpu time spent up to now is     2666.6 secs

     total energy              =  -27868.34985183 Ry
     estimated scf accuracy    <       0.00001239 Ry

     iteration # 22     ecut=    50.00 Ry     beta= 0.70
     Davidson diagonalization with overlap
     ethr =  7.09E-10,  avg # of iterations =  2.0

     negative rho (up, down):  2.386E-03 0.000E+00

     total cpu time spent up to now is     2768.3 secs

     total energy              =  -27868.34985223 Ry
     estimated scf accuracy    <       0.00001250 Ry

     iteration # 23     ecut=    50.00 Ry     beta= 0.70
     Davidson diagonalization with overlap
     ethr =  7.09E-10,  avg # of iterations =  2.0

     negative rho (up, down):  2.386E-03 0.000E+00

     total cpu time spent up to now is     2869.9 secs

     End of self-consistent calculation

          k = 0.0000 0.0000 0.0000 ( 94390 PWs)   bands (ev):

  -127.8071-127.1382-127.0735-127.0618-127.0605-127.0557-127.0537-127.0531
  -127.0529-127.0510-127.0499-127.0492-127.0485-127.0475-127.0462-127.0453
  -127.0450-127.0433-127.0431-127.0416-127.0391-127.0387-127.0385-127.0377
  -127.0374-127.0365-127.0318-127.0299-127.0295-127.0270-127.0248-127.0242
  -127.0240-127.0233-127.0232-127.0223-127.0211-127.0195-127.0193-127.0183
  -127.0171-127.0169-127.0162-127.0154-127.0140-127.0120-127.0115-127.0115
  -127.0111-127.0107-127.0095-127.0094-127.0081-127.0078-127.0064-127.0052
  -127.0027-127.0021-127.0016-126.9955 -82.0807 -81.9244 -81.8971 -81.3265
   -81.2810 -81.2670 -81.2438 -81.2305 -81.2284 -81.2245 -81.2242 -81.2227
   -81.2216 -81.2205 -81.2194 -81.2189 -81.2179 -81.2177 -81.2163 -81.2157
   -81.2148 -81.2143 -81.2141 -81.2128 -81.2126 -81.2122 -81.2119 -81.2114
   -81.2109 -81.2106 -81.2082 -81.2080 -81.2075 -81.2075 -81.2072 -81.2069
   -81.2067 -81.2060 -81.2047 -81.2046 -81.2043 -81.2027 -81.2003 -81.2002
   -81.2001 -81.1999 -81.1998 -81.1993 -81.1992 -81.1975 -81.1974 -81.1973
   -81.1970 -81.1969 -81.1963 -81.1961 -81.1954 -81.1949 -81.1947 -81.1946
   -81.1944 -81.1942 -81.1939 -81.1936 -81.1924 -81.1923 -81.1922 -81.1918
   -81.1915 -81.1910 -81.1908 -81.1906 -81.1903 -81.1901 -81.1889 -81.1885
   -81.1884 -81.1882 -81.1882 -81.1878 -81.1876 -81.1873 -81.1872 -81.1867
   -81.1864 -81.1862 -81.1859 -81.1853 -81.1847 -81.1840 -81.1838 -81.1834
   -81.1833 -81.1829 -81.1827 -81.1825 -81.1824 -81.1821 -81.1819 -81.1818
   -81.1806 -81.1804 -81.1800 -81.1799 -81.1797 -81.1788 -81.1784 -81.1776
   -81.1775 -81.1766 -81.1762 -81.1761 -81.1757 -81.1756 -81.1751 -81.1744
   -81.1742 -81.1735 -81.1734 -81.1727 -81.1725 -81.1719 -81.1717 -81.1709
   -81.1704 -81.1689 -81.1680 -81.1679 -81.1665 -81.1655 -81.1651 -81.1641
   -81.1639 -81.1631 -81.1629 -81.1622 -81.1620 -81.1616 -81.1614 -81.1610
   -81.1607 -81.1606 -81.1598 -81.1595 -81.1585 -81.1579 -81.1574 -81.1569
   -81.1567 -81.1567 -81.1566 -81.1564 -81.1562 -81.1558 -81.1549 -81.1548
   -81.1537 -81.1522 -81.1521 -81.1515 -81.1510 -81.1505 -81.1503 -81.1500
   -81.1497 -81.1483 -81.1482 -81.1475 -81.1470 -81.1452 -81.1450 -81.1443
   -81.1441 -81.1438 -81.1434 -81.1433 -81.1419 -81.1406 -81.1373 -81.1356
   -21.2912 -18.8986 -18.2396 -16.0098 -15.7391 -13.4924 -12.7417 -11.3980
   -10.7387 -10.5018 -10.0376  -9.4597  -9.4522  -9.2464  -9.2331  -9.0691
    -9.0077  -8.9629  -8.8741  -8.8418  -8.8340  -8.8263  -8.8086  -8.7990
    -8.7796  -8.7778  -8.7722  -8.7651  -8.7495  -8.7392  -8.7284  -8.6680
    -8.6435  -8.6281  -8.6256  -8.6244  -8.6126  -8.6103  -8.6073  -8.6062
    -8.6018  -8.5962  -8.5898  -8.5754  -8.5704  -8.5621  -8.5616  -8.5568
    -8.5465  -8.5412  -8.5387  -8.5347  -8.5336  -8.5297  -8.5274  -8.5200
    -8.5187  -8.5117  -8.5077  -8.5038  -8.4998  -8.4941  -8.4916  -8.4673
    -8.4628  -8.4523  -8.4502  -8.4390  -8.4379  -8.4355  -8.4320  -8.4314
    -8.4296  -8.4233  -8.4186  -8.4154  -8.3871  -8.3823  -8.3801  -8.3779
    -8.3770  -8.3745  -8.3707  -8.3670  -8.3594  -8.3441  -8.3419  -8.3385
    -8.3241  -8.3209  -8.3189  -8.3091  -8.3063  -8.3049  -8.3022  -8.2947
    -8.2912  -8.2894  -8.2875  -8.2840  -8.2822  -8.2800  -8.2717  -8.2688
    -8.2680  -8.2623  -8.2594  -8.2429  -8.2338  -8.2290  -8.2271  -8.2084
    -8.2005  -8.1886  -8.1859  -8.1848  -8.1810  -8.1801  -8.1792  -8.1781
    -8.1730  -8.1664  -8.1599  -8.1557  -8.1536  -8.1531  -8.1249  -8.1232
    -8.1156  -8.1018  -8.0939  -8.0767  -8.0719  -8.0697  -8.0645  -8.0596
    -8.0562  -8.0512  -8.0469  -8.0463  -8.0459  -8.0428  -8.0400  -8.0377
    -8.0347  -8.0210  -8.0205  -8.0195  -8.0178  -8.0168  -8.0164  -8.0161
    -8.0144  -8.0121  -8.0106  -8.0090  -8.0080  -8.0057  -8.0039  -8.0028
    -8.0011  -8.0002  -7.9962  -7.9850  -7.9748  -7.9682  -7.9633  -7.9577
    -7.9481  -7.9364  -7.9325  -7.9297  -7.9123  -7.9103  -7.9101  -7.9027
    -7.9003  -7.8959  -7.8951  -7.8941  -7.8928  -7.8914  -7.8837  -7.8752
    -7.8742  -7.8713  -7.8681  -7.8652  -7.8624  -7.8618  -7.8525  -7.8516
    -7.8468  -7.8416  -7.8390  -7.8361  -7.8297  -7.8288  -7.8262  -7.8125
    -7.8106  -7.8017  -7.7948  -7.7921  -7.7835  -7.7813  -7.7763  -7.7706
    -7.7654  -7.7488  -7.7472  -7.7384  -7.7353  -7.7215  -7.7202  -7.7145
    -7.7128  -7.7113  -7.7095  -7.7062  -7.7029  -7.7026  -7.6922  -7.6893
    -7.6882  -7.6849  -7.6840  -7.6824  -7.6817  -7.6805  -7.6793  -7.6784
    -7.6773  -7.6763  -7.6744  -7.6735  -7.6716  -7.6713  -7.6708  -7.6685
    -7.6645  -7.6630  -7.6581  -7.6500  -7.6450  -7.6432  -7.6402  -7.6395
    -7.6372  -7.6291  -7.6250  -7.6228  -7.6214  -7.6207  -7.6197  -7.6178
    -7.6169  -7.6146  -7.6108  -7.6096  -7.6093  -7.6062  -7.6015  -7.5926
    -7.5910  -7.5826  -7.5809  -7.5755  -7.5712  -7.5663  -7.5623  -7.5549
    -7.5538  -7.5489  -7.5443  -7.5417  -7.5389  -7.5370  -7.5348  -7.5338
    -7.5306  -7.5285  -7.5278  -7.5274  -7.5242  -7.5196  -7.5190  -7.5164
    -7.5061  -7.5037  -7.5024  -7.5023  -7.4996  -7.4929  -7.4891  -7.4781
    -7.4744  -7.4701  -7.4694  -7.4677  -7.4655  -7.4649  -7.4640  -7.4634
    -7.4629  -7.4618  -7.4606  -7.4502  -7.4491  -7.4478  -7.4417  -7.4393
    -7.4369  -7.4360  -7.4320  -7.4310  -7.4265  -7.3951  -7.3496  -7.3388
    -7.3379  -7.3288  -7.0609  -6.7447  -6.4933  -6.4666  -5.9635  -5.8617
    -5.7387  -5.7367  -5.6382  -5.6187  -5.6114  -5.5911  -5.5536  -5.1491
    -5.1372  -5.1329  -5.1193  -5.1127  -5.1085  -5.1059  -5.0325  -4.7663
    -4.4942  -4.4280  -4.3149  -4.3055  -4.2765  -4.2152  -3.5444  -3.2108
    -3.1733  -3.0994  -3.0760  -3.0745  -3.0647  -2.9377  -2.7135  -2.6562
    -2.5391  -2.5060  -2.3691  -2.3676  -2.3417  -2.2787  -2.2031  -1.9180
    -1.9114  -1.8244  -1.8137  -1.7979  -1.7649  -1.7183  -1.7097  -1.3772
    -1.3512  -1.3215  -1.1954  -1.1279  -1.1235  -0.7971  -0.7883  -0.7792
    -0.7776  -0.2981  -0.2944  -0.2740  -0.1815   0.2361   0.2384   0.3546
     0.4114   0.4380   0.6516   0.6559   0.6622   0.7156   0.8179   1.2159
     1.2749   1.2892   1.3210   1.3829   1.4027   1.4178   1.4469   1.4620
     1.4641   1.5567   1.5932   1.6231   1.6459   1.7184   1.7725   1.7839
     1.7856   1.8494   2.1335   2.1507   2.2514   2.2829   2.2899   2.3900
     2.5639   2.6154   2.6497   2.7490   2.8796   2.8838   2.8973   2.9074
     2.9495   3.0864   3.1198   3.1334   3.1454   3.1745   3.2264   3.3437
     3.4686   3.6367   3.6924   3.7357   3.8138   3.8794   3.9326   3.9697
     3.9984   4.0427   4.1228   4.1554   4.1618   4.2156   4.2613   4.2881
     4.3257   4.3682   4.4009   4.4036   4.4069   4.4393   4.4765   4.4842
     4.5344   4.5519   4.5787   4.6331   4.6729   4.7365   4.7594   4.7666
     4.7969   4.8048   4.8151   4.8829   4.8948   4.9019   4.9110   4.9176
     4.9787   4.9945   5.0745   5.0965   5.1561   5.1996   5.2222   5.2251
     5.2372   5.2760   5.3171   5.3411   5.3639   5.4200   5.4797   5.5075
     5.5143   5.5383   5.5690   5.5870   5.5933   5.6362   5.7052   5.7102
     5.7314   5.7376

     the Fermi energy is    -0.8503 ev

!    total energy              =  -27868.34985244 Ry
     estimated scf accuracy    <       0.00000074 Ry
     smearing contrib. (-TS)   =      -0.01815491 Ry
     internal energy E=F+TS    =  -27868.33169753 Ry

     The total energy is F=E-TS. E is the sum of the following terms:
     one-electron contribution = -160957.16498181 Ry
     hartree contribution      =   80311.79677970 Ry
     xc contribution           =   -2575.77002473 Ry
     ewald contribution        =   55395.98526717 Ry
     one-center paw contrib.   =     -43.17873786 Ry

     convergence has been achieved in  23 iterations

     negative rho (up, down):  2.386E-03 0.000E+00

     Forces acting on atoms (cartesian axes, Ry/au):

     atom    1 type  1   force =     0.00040249   -0.00091718   -0.01140906
     atom    2 type  1   force =     0.00066512   -0.00005832   -0.01159278
     atom    3 type  1   force =    -0.00015070    0.00088808   -0.01221427
     atom    4 type  1   force =     0.00015519    0.00048167   -0.01106008
     atom    5 type  1   force =     0.00017756   -0.00045601   -0.01148826
     atom    6 type  1   force =    -0.00059086   -0.00094784   -0.01124766
     atom    7 type  1   force =    -0.00057910   -0.00057095   -0.01089502
     atom    8 type  1   force =    -0.00037762    0.00137660   -0.01102831
     atom    9 type  1   force =     0.00048184   -0.00051641   -0.01043696
     atom   10 type  1   force =    -0.00055129    0.00066463   -0.01004847
     atom   11 type  1   force =    -0.00016798    0.00018432   -0.01103232
     atom   12 type  1   force =     0.00081152   -0.00083964   -0.01198618
     atom   13 type  1   force =    -0.00024639    0.00090814   -0.01071154
     atom   14 type  1   force =    -0.00024050    0.00077433   -0.01158082
     atom   15 type  1   force =     0.00021640   -0.00096260   -0.01070185
     atom   16 type  1   force =     0.00064149   -0.00173928    0.03307058
     atom   17 type  1   force =     0.00040702   -0.00037113    0.03258047
     atom   18 type  1   force =     0.00030942    0.00024272    0.03261660
     atom   19 type  1   force =     0.00030113    0.00172050    0.03295833
     atom   20 type  1   force =    -0.00016049    0.00008523    0.03426037
     atom   21 type  1   force =     0.00038030   -0.00091015    0.03197466
     atom   22 type  1   force =    -0.00110413   -0.00091266    0.03034417
     atom   23 type  1   force =    -0.00193293    0.00163825    0.02739280
     atom   24 type  1   force =     0.00028245    0.00055867    0.03242455
     atom   25 type  1   force =    -0.00026228   -0.00005229    0.03230023
     atom   26 type  1   force =    -0.00070323   -0.00050368    0.03183754
     atom   27 type  1   force =    -0.00056327   -0.00125194    0.03244485
     atom   28 type  1   force =     0.00031357    0.00140641    0.03013510
     atom   29 type  1   force =    -0.00044469    0.00036319    0.03199000
     atom   30 type  1   force =    -0.00053034    0.00051452    0.03221473
     atom   31 type  1   force =     0.00064632   -0.00059136   -0.03247921
     atom   32 type  1   force =     0.00074016    0.00005544   -0.03234144
     atom   33 type  1   force =     0.00111454   -0.00032931   -0.03262987
     atom   34 type  1   force =     0.00052483    0.00059638   -0.03202681
     atom   35 type  1   force =     0.00063633    0.00025243   -0.03259766
     atom   36 type  1   force =    -0.00017714   -0.00185994   -0.03114492
     atom   37 type  1   force =    -0.00074823   -0.00042451   -0.03213027
     atom   38 type  1   force =    -0.00040508   -0.00010712   -0.02878370
     atom   39 type  1   force =    -0.00056520    0.00260025   -0.03342750
     atom   40 type  1   force =    -0.00045150    0.00007543   -0.03151980
     atom   41 type  1   force =     0.00035373   -0.00076704   -0.03223800
     atom   42 type  1   force =    -0.00101162    0.00040866   -0.03296231
     atom   43 type  1   force =    -0.00047103   -0.00007092   -0.03333803
     atom   44 type  1   force =     0.00023329    0.00065013   -0.03184014
     atom   45 type  1   force =    -0.00028240   -0.00026304   -0.03324404
     atom   46 type  1   force =    -0.00108119   -0.00067942    0.01169730
     atom   47 type  1   force =     0.00023453   -0.00049166    0.01085007
     atom   48 type  1   force =     0.00038885    0.00001849    0.01157078
     atom   49 type  1   force =     0.00040739   -0.00003994    0.01114649
     atom   50 type  1   force =    -0.00031567    0.00109992    0.01064869
     atom   51 type  1   force =    -0.00047888    0.00018863    0.01014749
     atom   52 type  1   force =    -0.00004162   -0.00546511    0.00553506
     atom   53 type  1   force =    -0.05152410   -0.05522972   -0.20215753
     atom   54 type  1   force =     0.00501707    0.02716831   -0.01477083
     atom   55 type  1   force =    -0.00058328    0.00033745    0.01004803
     atom   56 type  1   force =     0.00184434   -0.00153832    0.01190265
     atom   57 type  1   force =     0.00008897   -0.00024540    0.01067154
     atom   58 type  1   force =     0.00025723    0.00000989    0.01203431
     atom   59 type  1   force =     0.00012061    0.00011691    0.01145487
     atom   60 type  1   force =     0.00142910    0.00162445    0.01146782
     atom   61 type  2   force =    -0.00015668   -0.00115255    0.00425802
     atom   62 type  2   force =     0.00057535    0.00149857   -0.00591419
     atom   63 type  2   force =     0.00105968   -0.00134810    0.00322695
     atom   64 type  2   force =    -0.00126074   -0.00074277    0.00368903
     atom   65 type  2   force =     0.00067643    0.00153227   -0.00941028
     atom   66 type  2   force =    -0.00042784    0.00291532   -0.00683706
     atom   67 type  2   force =     0.00023017   -0.02122466    0.04057393
     atom   68 type  3   force =     0.00016320    0.00087538   -0.00336783
     atom   69 type  3   force =    -0.04441248    0.02666633    0.10213790
     atom   70 type  4   force =    -0.01122811    0.01706351    0.00884670
     atom   71 type  4   force =     0.10168833    0.00593626    0.11191112
     atom   72 type  4   force =     0.00016671   -0.00004405   -0.00012679
     atom   73 type  4   force =    -0.00005614    0.00022711   -0.00026053
     atom   74 type  4   force =     0.00019995    0.00005318    0.00037371
     atom   75 type  4   force =    -0.00005789   -0.00015297    0.00024490

     Total force =     0.347501     Total SCF correction =     0.009111

     BFGS Geometry Optimization
     Energy error            =      0.0E+00 Ry
     Gradient error          =      2.0E-01 Ry/Bohr

     number of scf cycles    =   1
     number of bfgs steps    =   0

     energy             new  =  -27868.3498524424 Ry

     new trust radius        =       0.2158071442 bohr
     new conv_thr            =       0.0000010000 Ry


ATOMIC_POSITIONS (angstrom)
Zn               1.2184979893        1.3066856510        0.7486705879
Zn               1.2186369687        3.9215001381        0.7485733661
Zn               1.2182052505        6.5363609518        0.7482444840
Zn               1.2183671251        9.1505058912        0.7488552600
Zn               1.2183789607       11.7643696893        0.7486286721
Zn               6.0911433281        1.3066694264        0.7487559961
Zn               6.0911495521        3.9212288642        0.7489426037
Zn               6.0912561735        6.5366194671        0.7488720699
Zn               6.0917109813        9.1499777256        0.7491849997
Zn               6.0911642703       11.7649627078        0.7493905762
Zn              10.9645231076        1.3072685385        0.7488699451
Zn              10.9650414370        3.9210866816        0.7483651888
Zn              10.9644816136        6.5363715685        0.7490396977
Zn              10.9644847312        9.1506607569        0.7485796936
Zn              10.9647265134       11.7641016145        0.7490448237
Zn               1.2186244641       -0.0009283880        3.0363091986
Zn               1.2185003831        2.6141556078        3.0360498399
Zn               1.2184487376        5.2288404426        3.0360689632
Zn               1.2184443526        7.8439824485        3.0362497990
Zn               1.2182000732       10.4574771044        3.0369388077
Zn               6.0916572441       -0.0004896323        3.0357292608
Zn               6.0908717186        2.6138690419        3.0348664457
Zn               6.0904331370        5.2295789230        3.0333046459
Zn               6.0916054653        7.8433676369        3.0359673346
Zn               6.0913172051       10.4574043282        3.0359015470
Zn              10.9642398675       -0.0002745364        3.0356566992
Zn              10.9643139319        2.6136895003        3.0359780728
Zn              10.9647779363        5.2294562401        3.0347558083
Zn              10.9643766814        7.8432641922        3.0357373771
Zn              10.9643313566       10.4577042726        3.0358563024
Zn               3.6552130169       -0.0003029329        1.4922047402
Zn               3.6552626761        2.6143993388        1.4922776470
Zn               3.6554607878        5.2285557386        1.4921250159
Zn               3.6551487297        7.8434055925        1.4924441413
Zn               3.6552077326       10.4575835827        1.4921420609
Zn               8.5279322635       -0.0009742373        1.4929108163
Zn               8.5276300532        2.6141453590        1.4923893913
Zn               8.5278116419        5.2286733130        1.4941603210
Zn               8.5277269110        7.8444659928        1.4917029314
Zn               8.5277870776       10.4574899137        1.4927124421
Zn              13.4013841837       -0.0003959023        1.4923323826
Zn              13.4006616761        2.6145862546        1.4919490944
Zn              13.4009477402        5.2286924685        1.4917502720
Zn              13.4013204503        7.8434340347        1.4925429246
Zn              13.4010475598       10.4573108057        1.4918000102
Zn               3.6542988588       -1.3075285330        3.7796829472
Zn               3.6549951073        1.3069308257        3.7792346088
Zn               3.6550767715        3.9215607826        3.7796159945
Zn               3.6550865841        6.5358898635        3.7793914659
Zn               3.6547039521        9.1508530538        3.7791280458
Zn               8.5277725897       -1.3070691825        3.7788628222
Zn               8.5280039757        1.3042989885        3.7764220266
Zn               8.5007606191        3.8923246889        3.6665158408
Zn               8.5306809198        6.5502878531        3.7656766120
Zn               8.5277173405        9.1504495729        3.7788101864
Zn              13.4021729834       -1.3079830440        3.7797916125
Zn              13.4012440824        1.3070611388        3.7791401376
Zn              13.4013331212        3.9215562357        3.7798612829
Zn              13.4012608241        6.5359728659        3.7795546562
Zn              13.4019532466        9.1511306209        3.7795615084
C                8.0208080905        2.9018620978       11.1331522446
C                8.1067634604        3.3016240117        9.7633143463
C                7.2259177593        4.2664996180        9.2438366270
C                9.0733968456        2.7368189444        8.9132941480
C                7.3081109520        4.6564628407        7.9097572932
C                9.1579285988        3.1256517229        7.5800119849
C                8.2765618019        4.0811823924        7.0772297993
N                7.9508333602        2.5761522331       12.2479468201
N                8.3349969259        4.4892622141        5.7980640478
H                7.7257463376        5.1766626227        5.3675284726
H                9.1036801463        4.0797883310        5.1860818159
H                9.7625392195        1.9886056900        9.3020829030
H                6.4717522912        4.7123591817        9.8909341328
H                9.9145118096        2.6763061424        6.9365287601
H                6.6163963677        5.4057120497        7.5266585981



     Writing config-only to output data dir /home/ys/Research/PSID_server_room/qe/zinc_surface_ABN.relax/Zn_100_ABN/pwscf.save/ :
     XML data file
     NEW-OLD atomic charge density approx. for the potential

     negative rho (up, down):  2.861E-03 0.000E+00

     total cpu time spent up to now is     2916.5 secs

     Self-consistent Calculation

     iteration #  1     ecut=    50.00 Ry     beta= 0.70
     Davidson diagonalization with overlap
     ethr =  1.00E-06,  avg # of iterations = 15.0

     negative rho (up, down):  2.305E-03 0.000E+00

     total cpu time spent up to now is     3179.6 secs

     total energy              =  -27868.43404418 Ry
     estimated scf accuracy    <       0.00737667 Ry

     iteration #  2     ecut=    50.00 Ry     beta= 0.70
     Davidson diagonalization with overlap
     ethr =  5.93E-07,  avg # of iterations = 13.0

     negative rho (up, down):  2.333E-03 0.000E+00

     total cpu time spent up to now is     3310.0 secs

     total energy              =  -27868.41783592 Ry
     estimated scf accuracy    <       0.27189915 Ry

     iteration #  3     ecut=    50.00 Ry     beta= 0.70
     Davidson diagonalization with overlap
     ethr =  5.93E-07,  avg # of iterations =  8.0

     negative rho (up, down):  2.339E-03 0.000E+00

     total cpu time spent up to now is     3424.6 secs

     total energy              =  -27868.43387182 Ry
     estimated scf accuracy    <       0.03897246 Ry

     iteration #  4     ecut=    50.00 Ry     beta= 0.70
     Davidson diagonalization with overlap
     ethr =  5.93E-07,  avg # of iterations =  3.0

     negative rho (up, down):  2.340E-03 0.000E+00

     total cpu time spent up to now is     3535.1 secs

     total energy              =  -27868.43529652 Ry
     estimated scf accuracy    <       0.01291983 Ry

     iteration #  5     ecut=    50.00 Ry     beta= 0.70
     Davidson diagonalization with overlap
     ethr =  5.93E-07,  avg # of iterations =  2.0

     negative rho (up, down):  2.335E-03 0.000E+00

     total cpu time spent up to now is     3639.8 secs

     total energy              =  -27868.43657679 Ry
     estimated scf accuracy    <       0.00289713 Ry

     iteration #  6     ecut=    50.00 Ry     beta= 0.70
     Davidson diagonalization with overlap
     ethr =  2.33E-07,  avg # of iterations =  2.0

     negative rho (up, down):  2.334E-03 0.000E+00

     total cpu time spent up to now is     3742.9 secs

     total energy              =  -27868.43685634 Ry
     estimated scf accuracy    <       0.00069788 Ry

     iteration #  7     ecut=    50.00 Ry     beta= 0.70
     Davidson diagonalization with overlap
     ethr =  5.61E-08,  avg # of iterations =  2.0

     negative rho (up, down):  2.334E-03 0.000E+00

     total cpu time spent up to now is     3846.1 secs

     total energy              =  -27868.43684301 Ry
     estimated scf accuracy    <       0.00217854 Ry

     iteration #  8     ecut=    50.00 Ry     beta= 0.70
     Davidson diagonalization with overlap
     ethr =  5.61E-08,  avg # of iterations =  1.0

     negative rho (up, down):  2.334E-03 0.000E+00

     total cpu time spent up to now is     3931.3 secs

     total energy              =  -27868.43695860 Ry
     estimated scf accuracy    <       0.00023827 Ry

     iteration #  9     ecut=    50.00 Ry     beta= 0.70
     Davidson diagonalization with overlap
     ethr =  1.92E-08,  avg # of iterations =  2.0

     negative rho (up, down):  2.334E-03 0.000E+00

     total cpu time spent up to now is     4033.8 secs

     total energy              =  -27868.43697682 Ry
     estimated scf accuracy    <       0.00000773 Ry

     iteration # 10     ecut=    50.00 Ry     beta= 0.70
     Davidson diagonalization with overlap
     ethr =  6.21E-10,  avg # of iterations =  3.0

     negative rho (up, down):  2.334E-03 0.000E+00

     total cpu time spent up to now is     4140.5 secs

     total energy              =  -27868.43697744 Ry
     estimated scf accuracy    <       0.00000688 Ry

     iteration # 11     ecut=    50.00 Ry     beta= 0.70
     Davidson diagonalization with overlap
     ethr =  5.53E-10,  avg # of iterations =  2.0

     negative rho (up, down):  2.334E-03 0.000E+00

     total cpu time spent up to now is     4242.6 secs

     total energy              =  -27868.43697790 Ry
     estimated scf accuracy    <       0.00000826 Ry

     iteration # 12     ecut=    50.00 Ry     beta= 0.70
     Davidson diagonalization with overlap
     ethr =  5.53E-10,  avg # of iterations =  2.0

     negative rho (up, down):  2.334E-03 0.000E+00

     total cpu time spent up to now is     4344.0 secs

     End of self-consistent calculation

          k = 0.0000 0.0000 0.0000 ( 94390 PWs)   bands (ev):

  -127.5714-127.1257-127.0773-127.0688-127.0633-127.0622-127.0602-127.0587
  -127.0582-127.0580-127.0564-127.0551-127.0551-127.0548-127.0540-127.0539
  -127.0526-127.0520-127.0511-127.0493-127.0461-127.0446-127.0438-127.0410
  -127.0387-127.0384-127.0378-127.0373-127.0369-127.0369-127.0352-127.0340
  -127.0331-127.0330-127.0322-127.0319-127.0303-127.0297-127.0294-127.0287
  -127.0282-127.0267-127.0261-127.0245-127.0240-127.0223-127.0215-127.0206
  -127.0194-127.0188-127.0181-127.0171-127.0170-127.0164-127.0161-127.0150
  -127.0144-127.0119-127.0117-127.0079 -81.7985 -81.7012 -81.6841 -81.3120
   -81.2687 -81.2570 -81.2475 -81.2388 -81.2319 -81.2314 -81.2292 -81.2276
   -81.2274 -81.2270 -81.2256 -81.2250 -81.2248 -81.2230 -81.2227 -81.2225
   -81.2213 -81.2207 -81.2207 -81.2198 -81.2189 -81.2186 -81.2181 -81.2178
   -81.2173 -81.2172 -81.2165 -81.2160 -81.2141 -81.2138 -81.2131 -81.2129
   -81.2124 -81.2118 -81.2107 -81.2101 -81.2091 -81.2085 -81.2083 -81.2082
   -81.2079 -81.2071 -81.2068 -81.2065 -81.2063 -81.2056 -81.2055 -81.2053
   -81.2043 -81.2039 -81.2035 -81.2030 -81.2028 -81.2026 -81.2022 -81.2022
   -81.2020 -81.2012 -81.2012 -81.2006 -81.2002 -81.2000 -81.1999 -81.1995
   -81.1993 -81.1986 -81.1983 -81.1979 -81.1978 -81.1974 -81.1972 -81.1971
   -81.1965 -81.1964 -81.1961 -81.1959 -81.1959 -81.1949 -81.1947 -81.1945
   -81.1944 -81.1943 -81.1932 -81.1930 -81.1922 -81.1921 -81.1916 -81.1910
   -81.1908 -81.1905 -81.1903 -81.1897 -81.1895 -81.1892 -81.1885 -81.1883
   -81.1880 -81.1878 -81.1877 -81.1875 -81.1873 -81.1871 -81.1860 -81.1853
   -81.1852 -81.1848 -81.1844 -81.1843 -81.1830 -81.1829 -81.1827 -81.1824
   -81.1820 -81.1816 -81.1807 -81.1802 -81.1795 -81.1783 -81.1775 -81.1771
   -81.1765 -81.1764 -81.1763 -81.1759 -81.1742 -81.1740 -81.1738 -81.1736
   -81.1732 -81.1730 -81.1727 -81.1724 -81.1721 -81.1718 -81.1715 -81.1711
   -81.1708 -81.1703 -81.1703 -81.1702 -81.1701 -81.1698 -81.1695 -81.1695
   -81.1684 -81.1666 -81.1665 -81.1664 -81.1662 -81.1650 -81.1646 -81.1641
   -81.1636 -81.1629 -81.1613 -81.1611 -81.1606 -81.1597 -81.1596 -81.1595
   -81.1594 -81.1592 -81.1589 -81.1588 -81.1585 -81.1563 -81.1561 -81.1560
   -81.1554 -81.1547 -81.1536 -81.1514 -81.1510 -81.1504 -81.1490 -81.1476
   -20.9411 -18.8188 -18.0953 -15.7505 -15.6456 -13.0792 -12.6062 -10.7639
   -10.6169 -10.3863 -10.0107  -9.4323  -9.4300  -9.2147  -9.2095  -8.9546
    -8.8696  -8.8588  -8.8299  -8.8245  -8.8237  -8.8034  -8.7912  -8.7786
    -8.7707  -8.7670  -8.7497  -8.7397  -8.7215  -8.7136  -8.6946  -8.6573
    -8.6336  -8.6196  -8.6168  -8.6157  -8.6048  -8.6020  -8.5963  -8.5920
    -8.5887  -8.5780  -8.5672  -8.5615  -8.5597  -8.5517  -8.5511  -8.5464
    -8.5345  -8.5295  -8.5274  -8.5258  -8.5239  -8.5207  -8.5205  -8.5114
    -8.5101  -8.5001  -8.4985  -8.4876  -8.4872  -8.4840  -8.4733  -8.4540
    -8.4515  -8.4390  -8.4379  -8.4330  -8.4320  -8.4301  -8.4264  -8.4260
    -8.4212  -8.4190  -8.4139  -8.4116  -8.3816  -8.3783  -8.3774  -8.3758
    -8.3699  -8.3689  -8.3670  -8.3643  -8.3510  -8.3440  -8.3315  -8.3243
    -8.3197  -8.3169  -8.3125  -8.3065  -8.3058  -8.3015  -8.3010  -8.2974
    -8.2934  -8.2914  -8.2841  -8.2791  -8.2737  -8.2731  -8.2632  -8.2629
    -8.2615  -8.2567  -8.2513  -8.2392  -8.2372  -8.2251  -8.2222  -8.2115
    -8.2045  -8.1958  -8.1937  -8.1926  -8.1916  -8.1898  -8.1880  -8.1861
    -8.1773  -8.1736  -8.1674  -8.1640  -8.1621  -8.1528  -8.1363  -8.1228
    -8.1138  -8.1036  -8.0897  -8.0837  -8.0824  -8.0796  -8.0714  -8.0616
    -8.0584  -8.0572  -8.0534  -8.0472  -8.0457  -8.0439  -8.0398  -8.0358
    -8.0335  -8.0265  -8.0252  -8.0226  -8.0210  -8.0206  -8.0187  -8.0174
    -8.0173  -8.0166  -8.0162  -8.0153  -8.0149  -8.0117  -8.0108  -8.0088
    -8.0062  -8.0042  -7.9966  -7.9846  -7.9775  -7.9727  -7.9658  -7.9456
    -7.9414  -7.9372  -7.9326  -7.9216  -7.9212  -7.9139  -7.9122  -7.9076
    -7.9069  -7.9060  -7.9047  -7.8969  -7.8933  -7.8890  -7.8879  -7.8838
    -7.8825  -7.8783  -7.8776  -7.8762  -7.8681  -7.8628  -7.8596  -7.8553
    -7.8544  -7.8510  -7.8445  -7.8422  -7.8419  -7.8360  -7.8232  -7.8226
    -7.8134  -7.8058  -7.8016  -7.7913  -7.7878  -7.7857  -7.7842  -7.7775
    -7.7754  -7.7605  -7.7593  -7.7490  -7.7455  -7.7353  -7.7259  -7.7245
    -7.7240  -7.7195  -7.7156  -7.7139  -7.7082  -7.7055  -7.7041  -7.6994
    -7.6976  -7.6953  -7.6944  -7.6938  -7.6937  -7.6922  -7.6903  -7.6897
    -7.6890  -7.6872  -7.6865  -7.6853  -7.6838  -7.6825  -7.6794  -7.6784
    -7.6762  -7.6733  -7.6663  -7.6601  -7.6583  -7.6550  -7.6545  -7.6505
    -7.6398  -7.6388  -7.6343  -7.6334  -7.6324  -7.6311  -7.6287  -7.6276
    -7.6262  -7.6250  -7.6220  -7.6212  -7.6199  -7.6167  -7.6136  -7.6050
    -7.5996  -7.5933  -7.5876  -7.5839  -7.5822  -7.5787  -7.5766  -7.5683
    -7.5656  -7.5620  -7.5570  -7.5548  -7.5519  -7.5502  -7.5465  -7.5453
    -7.5452  -7.5434  -7.5412  -7.5393  -7.5389  -7.5292  -7.5274  -7.5259
    -7.5181  -7.5172  -7.5165  -7.5158  -7.5151  -7.5034  -7.4986  -7.4866
    -7.4837  -7.4825  -7.4811  -7.4803  -7.4787  -7.4769  -7.4753  -7.4742
    -7.4721  -7.4716  -7.4688  -7.4662  -7.4652  -7.4616  -7.4581  -7.4552
    -7.4533  -7.4482  -7.4455  -7.4413  -7.4334  -7.3585  -7.3479  -7.3464
    -7.3375  -7.3096  -7.0269  -6.5779  -6.4857  -6.4471  -5.9100  -5.8416
    -5.7324  -5.7252  -5.6287  -5.6052  -5.6014  -5.5896  -5.5387  -5.1853
    -5.1797  -5.1751  -5.1270  -5.1088  -5.0980  -5.0940  -5.0574  -4.6703
    -4.4294  -4.3759  -4.3640  -4.3481  -4.3081  -4.2150  -3.4293  -3.2554
    -3.2178  -3.0842  -3.0614  -3.0582  -3.0554  -2.9284  -2.7215  -2.6925
    -2.5417  -2.4744  -2.4154  -2.4106  -2.3824  -2.2705  -2.1984  -1.9214
    -1.9095  -1.8722  -1.8591  -1.8389  -1.7973  -1.7117  -1.7034  -1.4068
    -1.3853  -1.3487  -1.2301  -1.1181  -1.1163  -0.8005  -0.7911  -0.7844
    -0.7795  -0.3306  -0.3251  -0.3061  -0.2270   0.2360   0.2413   0.3004
     0.3913   0.4196   0.6269   0.6322   0.6352   0.6888   0.7817   1.2598
     1.2925   1.2961   1.3459   1.3525   1.3697   1.3914   1.4204   1.4332
     1.4349   1.5622   1.5919   1.6059   1.6301   1.7403   1.7809   1.7982
     1.8010   1.8651   2.1082   2.1209   2.2380   2.2719   2.2822   2.3727
     2.5377   2.5800   2.6172   2.6985   2.8431   2.8543   2.8573   2.8731
     2.9525   3.0788   3.1104   3.1285   3.1440   3.1646   3.2113   3.4576
     3.4673   3.6503   3.7040   3.7466   3.8190   3.8784   3.9283   3.9545
     4.0050   4.0253   4.0853   4.1149   4.1422   4.2098   4.2378   4.3092
     4.3227   4.3615   4.3640   4.3844   4.3972   4.4334   4.4610   4.4892
     4.5129   4.5653   4.5817   4.6425   4.6795   4.7356   4.7510   4.7619
     4.7733   4.7890   4.7930   4.8449   4.8722   4.8835   4.8975   4.9198
     4.9626   4.9844   5.0486   5.0927   5.1571   5.1915   5.2270   5.2365
     5.2450   5.2830   5.3108   5.3398   5.3635   5.4209   5.4788   5.4886
     5.5094   5.5251   5.5529   5.5603   5.5758   5.6112   5.6933   5.6942
     5.7251   5.7388

     the Fermi energy is    -0.8535 ev

!    total energy              =  -27868.43697811 Ry
     estimated scf accuracy    <       0.00000083 Ry
     smearing contrib. (-TS)   =      -0.01824080 Ry
     internal energy E=F+TS    =  -27868.41873731 Ry

     The total energy is F=E-TS. E is the sum of the following terms:
     one-electron contribution = -160633.47512947 Ry
     hartree contribution      =   80149.97371763 Ry
     xc contribution           =   -2575.65689000 Ry
     ewald contribution        =   55233.92023567 Ry
     one-center paw contrib.   =     -43.18067114 Ry

     convergence has been achieved in  12 iterations

     negative rho (up, down):  2.334E-03 0.000E+00

     Forces acting on atoms (cartesian axes, Ry/au):

     atom    1 type  1   force =    -0.00009032    0.00009354   -0.00816968
     atom    2 type  1   force =    -0.00009729    0.00022823   -0.00823010
     atom    3 type  1   force =    -0.00058778    0.00038068   -0.00865518
     atom    4 type  1   force =    -0.00040910   -0.00021903   -0.00755117
     atom    5 type  1   force =    -0.00036511   -0.00054339   -0.00794848
     atom    6 type  1   force =    -0.00029985   -0.00054364   -0.00891224
     atom    7 type  1   force =    -0.00109811    0.00005876   -0.00909535
     atom    8 type  1   force =    -0.00005777    0.00113220   -0.00871396
     atom    9 type  1   force =     0.00047158   -0.00100527   -0.00803329
     atom   10 type  1   force =    -0.00053782    0.00032601   -0.00781011
     atom   11 type  1   force =     0.00024257    0.00059062   -0.00838991
     atom   12 type  1   force =     0.00172441   -0.00016015   -0.00907561
     atom   13 type  1   force =     0.00008849    0.00043547   -0.00794627
     atom   14 type  1   force =     0.00019278   -0.00016756   -0.00850705
     atom   15 type  1   force =     0.00070609   -0.00068664   -0.00796355
     atom   16 type  1   force =     0.00001463   -0.00134627    0.02982004
     atom   17 type  1   force =    -0.00029005    0.00042617    0.02896574
     atom   18 type  1   force =    -0.00040316    0.00030818    0.02902960
     atom   19 type  1   force =    -0.00036335    0.00096421    0.02921246
     atom   20 type  1   force =    -0.00082024   -0.00039434    0.03112881
     atom   21 type  1   force =     0.00014222   -0.00071221    0.02901533
     atom   22 type  1   force =    -0.00280652   -0.00116113    0.02718248
     atom   23 type  1   force =    -0.00243339    0.00222251    0.02443058
     atom   24 type  1   force =    -0.00010815    0.00012804    0.02889062
     atom   25 type  1   force =    -0.00009937   -0.00044802    0.02917995
     atom   26 type  1   force =     0.00010884   -0.00038858    0.02884287
     atom   27 type  1   force =     0.00109691   -0.00056057    0.02869701
     atom   28 type  1   force =     0.00096221    0.00132626    0.02666453
     atom   29 type  1   force =     0.00063453    0.00003174    0.02849212
     atom   30 type  1   force =     0.00003508   -0.00012260    0.02915745
     atom   31 type  1   force =    -0.00026501    0.00000778   -0.02918824
     atom   32 type  1   force =    -0.00028675    0.00060222   -0.02919996
     atom   33 type  1   force =     0.00006875   -0.00005449   -0.02962635
     atom   34 type  1   force =    -0.00039038   -0.00043200   -0.02890192
     atom   35 type  1   force =    -0.00001510   -0.00016844   -0.02967291
     atom   36 type  1   force =     0.00047489   -0.00158380   -0.02890852
     atom   37 type  1   force =     0.00049918   -0.00515368   -0.03736505
     atom   38 type  1   force =     0.00080524    0.00450160   -0.03131272
     atom   39 type  1   force =     0.00011589    0.00204596   -0.03166926
     atom   40 type  1   force =     0.00015062   -0.00063733   -0.02829320
     atom   41 type  1   force =     0.00037968   -0.00008561   -0.02870573
     atom   42 type  1   force =    -0.00063651    0.00106566   -0.02950198
     atom   43 type  1   force =    -0.00020490    0.00006002   -0.02980180
     atom   44 type  1   force =     0.00031520   -0.00042071   -0.02820108
     atom   45 type  1   force =    -0.00006826   -0.00065146   -0.02978890
     atom   46 type  1   force =    -0.00185475   -0.00060133    0.00940758
     atom   47 type  1   force =    -0.00062875   -0.00004431    0.00810409
     atom   48 type  1   force =    -0.00062255    0.00031279    0.00861609
     atom   49 type  1   force =    -0.00052661   -0.00021013    0.00799040
     atom   50 type  1   force =    -0.00119381    0.00046702    0.00830975
     atom   51 type  1   force =     0.00020658    0.00002420    0.00724841
     atom   52 type  1   force =     0.00078018   -0.00664962    0.00404395
     atom   53 type  1   force =    -0.02465229   -0.02856623   -0.08860803
     atom   54 type  1   force =     0.00547476    0.01905667   -0.01284764
     atom   55 type  1   force =     0.00015935    0.00112062    0.00703003
     atom   56 type  1   force =     0.00187073   -0.00134118    0.00923345
     atom   57 type  1   force =     0.00022129    0.00020569    0.00767200
     atom   58 type  1   force =     0.00030546    0.00043294    0.00861150
     atom   59 type  1   force =     0.00022987   -0.00007577    0.00787747
     atom   60 type  1   force =     0.00148149    0.00076118    0.00863895
     atom   61 type  2   force =     0.00144271    0.00561095   -0.01908168
     atom   62 type  2   force =     0.00065097   -0.00297109    0.00700317
     atom   63 type  2   force =    -0.00412499    0.00684199   -0.00939902
     atom   64 type  2   force =     0.00240442   -0.00042476   -0.00645290
     atom   65 type  2   force =    -0.00933633   -0.00697578    0.03564143
     atom   66 type  2   force =     0.01102943   -0.01782300    0.02052085
     atom   67 type  2   force =    -0.02197854    0.00453997    0.03560078
     atom   68 type  3   force =    -0.00095211   -0.00418196    0.01417963
     atom   69 type  3   force =     0.04308553   -0.01382709   -0.02684407
     atom   70 type  4   force =    -0.00733347    0.00864416    0.01551698
     atom   71 type  4   force =     0.00604097    0.03526144    0.08103911
     atom   72 type  4   force =     0.00020677   -0.00034341    0.00091615
     atom   73 type  4   force =     0.00001922   -0.00005855    0.00124139
     atom   74 type  4   force =     0.00053590    0.00081273   -0.00192428
     atom   75 type  4   force =     0.00056309    0.00071294   -0.00285560

     Total force =     0.231627     Total SCF correction =     0.009873
     Energy error            =      8.7E-02 Ry
     Gradient error          =      8.9E-02 Ry/Bohr

     number of scf cycles    =   2
     number of bfgs steps    =   1

     energy             old  =  -27868.3498524424 Ry
     energy             new  =  -27868.4369781064 Ry

     CASE: energy            _new < energy            _old

     new trust radius        =       0.3560314748 bohr
     new conv_thr            =       0.0000008861 Ry


ATOMIC_POSITIONS (angstrom)
Zn               1.2185743006        1.3063973053        0.7355696248
Zn               1.2188160430        3.9217083945        0.7353339469
Zn               1.2175430342        6.5371205353        0.7343117432
Zn               1.2180150235        9.1504841258        0.7365307837
Zn               1.2180810561       11.7636249992        0.7357200590
Zn               6.0905904784        1.3057187240        0.7349655975
Zn               6.0897878934        3.9210499042        0.7351130691
Zn               6.0910393087        6.5383495054        0.7353755520
Zn               6.0923932772        9.1487369333        0.7366297387
Zn               6.0903853933       11.7655730810        0.7372253404
Zn              10.9647001014        1.3079477216        0.7357020793
Zn              10.9671387725        3.9205721654        0.7340992951
Zn              10.9644687375        6.5371953949        0.7364582743
Zn              10.9645806318        9.1508138816        0.7350629598
Zn              10.9655368185       11.7629989660        0.7364498417
Zn               1.2189077391       -0.0030283769        3.0805422056
Zn               1.2183749797        2.6144347756        3.0792069550
Zn               1.2181672014        5.2292561342        3.0793062931
Zn               1.2181999389        7.8456851119        3.0798164919
Zn               1.2172967886       10.4571107788        3.0830036987
Zn               6.0919613173       -0.0015964109        3.0786834918
Zn               6.0875488800        2.6123035928        3.0752701895
Zn               6.0871439396        5.2325298673        3.0696684503
Zn               6.0916133762        7.8437318795        3.0789826418
Zn               6.0911061797       10.4569257460        3.0791597825
Zn              10.9640566219       -0.0008813660        3.0783777633
Zn              10.9651964639        2.6125943159        3.0788045080
Zn              10.9658899833        5.2313965791        3.0745440919
Zn              10.9648374792        7.8434484826        3.0781646698
Zn              10.9641452524       10.4577945396        3.0790558365
Zn               3.6552132570       -0.0005423948        1.4488631705
Zn               3.6552800096        2.6150364288        1.4489817747
Zn               3.6559971317        5.2283624260        1.4482738233
Zn               3.6549703390        7.8432147158        1.4495837074
Zn               3.6554585436       10.4575174780        1.4482568733
Zn               8.5283422564       -0.0033668366        1.4504125804
Zn               8.5278258969        2.6087141794        1.4408584793
Zn               8.5284630303        5.2332173701        1.4501990873
Zn               8.5276086049        7.8476394132        1.4454355419
Zn               8.5277517362       10.4568717782        1.4506846311
Zn              13.4019192070       -0.0008040621        1.4495835857
Zn              13.3995896274        2.6158435394        1.4480856064
Zn              13.4005418106        5.2287239804        1.4474239734
Zn              13.4017393504        7.8432771487        1.4504750040
Zn              13.4008598383       10.4565366750        1.4475261730
Zn               3.6519558405       -1.3084257528        3.7941664027
Zn               3.6544522863        1.3066799762        3.7920348670
Zn               3.6546048269        3.9218873667        3.7932396839
Zn               3.6547201948        6.5356589517        3.7921998337
Zn               3.6533549392        9.1517892749        3.7920537024
Zn               8.5277828404       -1.3069655984        3.7904968905
Zn               8.5287818717        1.2952341662        3.7828599352
Zn               8.4540756166        3.8400996462        3.4916186545
Zn               8.5383606737        6.5810796546        3.7464006168
Zn               8.5276357690        9.1517330852        3.7901800359
Zn              13.4048515438       -1.3099937694        3.7941834670
Zn              13.4015068873        1.3071681542        3.7914252414
Zn              13.4017521155        3.9220017122        3.7936742110
Zn              13.4015456065        6.5359445311        3.7923769129
Zn              13.4040613153        9.1525861400        3.7931654274
C                8.0222132243        2.9070996588       11.1154819656
C                8.1076677385        3.2992222414        9.7679791144
C                7.2221561154        4.2729102744        9.2356053701
C                9.0753204527        2.7360752221        8.9082594315
C                7.2988766145        4.6499928404        7.9421529292
C                9.1689928600        3.1087028223        7.5980704052
C                8.2542534853        4.0769311567        7.1304945952
N                7.9499310610        2.5722554175       12.2609924259
N                8.3603380056        4.4863227800        5.8134283748
H                7.7135734898        5.1926127812        5.3870472327
H                9.1523789357        4.1182167435        5.3155093015
H                9.7628197355        1.9882371975        9.3029637735
H                6.4717483945        4.7123945056        9.8920905992
H                9.9151417514        2.6771568786        6.9347235166
H                6.6169461576        5.4063748149        7.5238500954



     Writing config-only to output data dir /home/ys/Research/PSID_server_room/qe/zinc_surface_ABN.relax/Zn_100_ABN/pwscf.save/ :
     XML data file
     NEW-OLD atomic charge density approx. for the potential

     negative rho (up, down):  3.865E-03 0.000E+00

     total cpu time spent up to now is     4390.6 secs

     Self-consistent Calculation

     iteration #  1     ecut=    50.00 Ry     beta= 0.70
     Davidson diagonalization with overlap
     ethr =  1.00E-06,  avg # of iterations = 17.0

     negative rho (up, down):  2.127E-03 0.000E+00

     total cpu time spent up to now is     4698.0 secs

     total energy              =  -27868.52502094 Ry
     estimated scf accuracy    <       0.01503109 Ry

     iteration #  2     ecut=    50.00 Ry     beta= 0.70
     Davidson diagonalization with overlap
     ethr =  1.21E-06,  avg # of iterations =  8.0

     negative rho (up, down):  2.235E-03 0.000E+00

     total cpu time spent up to now is     4828.0 secs

     total energy              =  -27868.50534350 Ry
     estimated scf accuracy    <       0.20498031 Ry

     iteration #  3     ecut=    50.00 Ry     beta= 0.70
     Davidson diagonalization with overlap
     ethr =  1.21E-06,  avg # of iterations =  8.0

     negative rho (up, down):  2.307E-03 0.000E+00

     total cpu time spent up to now is     4944.3 secs

     total energy              =  -27868.51740279 Ry
     estimated scf accuracy    <       0.22196830 Ry

     iteration #  4     ecut=    50.00 Ry     beta= 0.70
     Davidson diagonalization with overlap
     ethr =  1.21E-06,  avg # of iterations =  7.0

     negative rho (up, down):  2.311E-03 0.000E+00

     total cpu time spent up to now is     5057.8 secs

     total energy              =  -27868.52775891 Ry
     estimated scf accuracy    <       0.00998938 Ry

     iteration #  5     ecut=    50.00 Ry     beta= 0.70
     Davidson diagonalization with overlap
     ethr =  8.03E-07,  avg # of iterations =  4.0

     negative rho (up, down):  2.309E-03 0.000E+00

     total cpu time spent up to now is     5165.9 secs

     total energy              =  -27868.52825822 Ry
     estimated scf accuracy    <       0.01399702 Ry

     iteration #  6     ecut=    50.00 Ry     beta= 0.70
     Davidson diagonalization with overlap
     ethr =  8.03E-07,  avg # of iterations =  2.0

     negative rho (up, down):  2.308E-03 0.000E+00

     total cpu time spent up to now is     5268.8 secs

     total energy              =  -27868.52961485 Ry
     estimated scf accuracy    <       0.00111966 Ry

     iteration #  7     ecut=    50.00 Ry     beta= 0.70
     Davidson diagonalization with overlap
     ethr =  9.00E-08,  avg # of iterations =  2.0

     negative rho (up, down):  2.308E-03 0.000E+00

     total cpu time spent up to now is     5372.5 secs

     total energy              =  -27868.52974647 Ry
     estimated scf accuracy    <       0.00024359 Ry

     iteration #  8     ecut=    50.00 Ry     beta= 0.70
     Davidson diagonalization with overlap
     ethr =  1.96E-08,  avg # of iterations =  3.0

     negative rho (up, down):  2.308E-03 0.000E+00

     total cpu time spent up to now is     5476.5 secs

     total energy              =  -27868.52977512 Ry
     estimated scf accuracy    <       0.00005387 Ry

     iteration #  9     ecut=    50.00 Ry     beta= 0.70
     Davidson diagonalization with overlap
     ethr =  4.33E-09,  avg # of iterations =  2.0

     negative rho (up, down):  2.308E-03 0.000E+00

     total cpu time spent up to now is     5578.9 secs

     total energy              =  -27868.52975934 Ry
     estimated scf accuracy    <       0.00064251 Ry

     iteration # 10     ecut=    50.00 Ry     beta= 0.70
     Davidson diagonalization with overlap
     ethr =  4.33E-09,  avg # of iterations =  2.0

     negative rho (up, down):  2.308E-03 0.000E+00

     total cpu time spent up to now is     5680.7 secs

     total energy              =  -27868.52978642 Ry
     estimated scf accuracy    <       0.00002046 Ry

     iteration # 11     ecut=    50.00 Ry     beta= 0.70
     Davidson diagonalization with overlap
     ethr =  1.64E-09,  avg # of iterations =  2.0

     negative rho (up, down):  2.308E-03 0.000E+00

     total cpu time spent up to now is     5782.3 secs

     total energy              =  -27868.52978804 Ry
     estimated scf accuracy    <       0.00001874 Ry

     iteration # 12     ecut=    50.00 Ry     beta= 0.70
     Davidson diagonalization with overlap
     ethr =  1.51E-09,  avg # of iterations =  2.0

     negative rho (up, down):  2.308E-03 0.000E+00

     total cpu time spent up to now is     5883.9 secs

     End of self-consistent calculation

          k = 0.0000 0.0000 0.0000 ( 94390 PWs)   bands (ev):

  -127.3611-127.0733-127.0729-127.0293-127.0288-127.0214-127.0149-127.0144
  -127.0139-127.0134-127.0130-127.0126-127.0126-127.0124-127.0111-127.0099
  -127.0097-127.0093-127.0092-127.0088-127.0086-127.0083-127.0077-127.0072
  -127.0064-127.0064-127.0063-127.0056-127.0040-127.0035-127.0035-127.0013
  -127.0006-126.9996-126.9982-126.9969-126.9959-126.9957-126.9956-126.9955
  -126.9951-126.9934-126.9924-126.9921-126.9884-126.9875-126.9874-126.9837
  -126.9826-126.9821-126.9812-126.9804-126.9796-126.9759-126.9752-126.9726
  -126.9720-126.9697-126.9685-126.9613 -81.5627 -81.4986 -81.4874 -81.2583
   -81.2492 -81.2180 -81.2164 -81.2122 -81.2073 -81.2001 -81.1973 -81.1907
   -81.1888 -81.1880 -81.1863 -81.1848 -81.1835 -81.1831 -81.1831 -81.1827
   -81.1823 -81.1811 -81.1808 -81.1801 -81.1798 -81.1794 -81.1779 -81.1773
   -81.1769 -81.1768 -81.1767 -81.1762 -81.1762 -81.1761 -81.1755 -81.1744
   -81.1744 -81.1740 -81.1725 -81.1725 -81.1722 -81.1717 -81.1706 -81.1705
   -81.1699 -81.1699 -81.1694 -81.1689 -81.1685 -81.1680 -81.1678 -81.1671
   -81.1665 -81.1663 -81.1662 -81.1661 -81.1651 -81.1650 -81.1648 -81.1648
   -81.1636 -81.1627 -81.1626 -81.1619 -81.1610 -81.1609 -81.1606 -81.1604
   -81.1603 -81.1597 -81.1594 -81.1592 -81.1582 -81.1582 -81.1580 -81.1577
   -81.1576 -81.1573 -81.1572 -81.1572 -81.1565 -81.1564 -81.1563 -81.1560
   -81.1555 -81.1553 -81.1547 -81.1541 -81.1538 -81.1531 -81.1529 -81.1524
   -81.1522 -81.1519 -81.1516 -81.1513 -81.1509 -81.1508 -81.1502 -81.1497
   -81.1495 -81.1493 -81.1493 -81.1492 -81.1488 -81.1487 -81.1485 -81.1483
   -81.1482 -81.1478 -81.1477 -81.1476 -81.1474 -81.1472 -81.1469 -81.1466
   -81.1463 -81.1461 -81.1460 -81.1448 -81.1444 -81.1440 -81.1438 -81.1438
   -81.1433 -81.1432 -81.1431 -81.1414 -81.1412 -81.1412 -81.1396 -81.1390
   -81.1388 -81.1388 -81.1374 -81.1374 -81.1371 -81.1367 -81.1366 -81.1361
   -81.1356 -81.1350 -81.1349 -81.1348 -81.1346 -81.1344 -81.1343 -81.1342
   -81.1339 -81.1333 -81.1329 -81.1315 -81.1305 -81.1299 -81.1292 -81.1283
   -81.1278 -81.1262 -81.1259 -81.1254 -81.1250 -81.1243 -81.1238 -81.1229
   -81.1221 -81.1214 -81.1206 -81.1186 -81.1183 -81.1178 -81.1172 -81.1171
   -81.1169 -81.1157 -81.1150 -81.1130 -81.1106 -81.1095 -81.1050 -81.1031
   -20.4889 -18.6096 -17.9936 -15.8474 -15.5856 -12.8586 -12.4528 -10.5569
   -10.4146 -10.1333  -9.8729  -9.3306  -9.3112  -9.1100  -9.0826  -8.8836
    -8.8032  -8.7724  -8.7649  -8.7494  -8.7273  -8.7204  -8.7154  -8.7069
    -8.6958  -8.6920  -8.6807  -8.6703  -8.6623  -8.6262  -8.6121  -8.6052
    -8.5631  -8.5484  -8.5452  -8.5435  -8.5320  -8.5303  -8.5295  -8.5157
    -8.5145  -8.5002  -8.4910  -8.4828  -8.4810  -8.4773  -8.4759  -8.4693
    -8.4593  -8.4539  -8.4530  -8.4514  -8.4508  -8.4477  -8.4449  -8.4379
    -8.4372  -8.4288  -8.4243  -8.4165  -8.4146  -8.4129  -8.3956  -8.3847
    -8.3797  -8.3696  -8.3664  -8.3619  -8.3596  -8.3593  -8.3568  -8.3561
    -8.3540  -8.3535  -8.3482  -8.3458  -8.3345  -8.3287  -8.3273  -8.3185
    -8.3052  -8.3041  -8.2972  -8.2924  -8.2899  -8.2824  -8.2815  -8.2779
    -8.2740  -8.2655  -8.2650  -8.2607  -8.2523  -8.2518  -8.2446  -8.2356
    -8.2317  -8.2269  -8.2169  -8.2094  -8.2056  -8.1999  -8.1968  -8.1950
    -8.1943  -8.1935  -8.1929  -8.1919  -8.1845  -8.1815  -8.1742  -8.1705
    -8.1675  -8.1644  -8.1606  -8.1600  -8.1576  -8.1558  -8.1519  -8.1507
    -8.1353  -8.1340  -8.1300  -8.1277  -8.1245  -8.1153  -8.0879  -8.0867
    -8.0617  -8.0590  -8.0557  -8.0545  -8.0524  -8.0499  -8.0390  -8.0317
    -8.0111  -8.0086  -8.0046  -7.9979  -7.9969  -7.9961  -7.9946  -7.9900
    -7.9871  -7.9864  -7.9851  -7.9836  -7.9826  -7.9787  -7.9779  -7.9731
    -7.9715  -7.9708  -7.9666  -7.9619  -7.9613  -7.9598  -7.9579  -7.9561
    -7.9523  -7.9474  -7.9442  -7.9331  -7.9317  -7.9270  -7.9142  -7.9108
    -7.8983  -7.8929  -7.8910  -7.8870  -7.8850  -7.8817  -7.8780  -7.8764
    -7.8734  -7.8671  -7.8638  -7.8581  -7.8533  -7.8487  -7.8422  -7.8393
    -7.8346  -7.8345  -7.8326  -7.8293  -7.8263  -7.8241  -7.8219  -7.8189
    -7.8171  -7.8151  -7.8107  -7.8032  -7.8023  -7.7905  -7.7882  -7.7839
    -7.7812  -7.7735  -7.7680  -7.7659  -7.7506  -7.7468  -7.7457  -7.7361
    -7.7325  -7.7311  -7.7207  -7.7172  -7.7159  -7.7040  -7.7023  -7.7010
    -7.6939  -7.6927  -7.6889  -7.6852  -7.6827  -7.6786  -7.6759  -7.6709
    -7.6695  -7.6689  -7.6685  -7.6676  -7.6660  -7.6633  -7.6623  -7.6614
    -7.6597  -7.6587  -7.6578  -7.6541  -7.6498  -7.6488  -7.6467  -7.6424
    -7.6406  -7.6379  -7.6344  -7.6332  -7.6315  -7.6311  -7.6300  -7.6220
    -7.6100  -7.6083  -7.6045  -7.6031  -7.6015  -7.5992  -7.5969  -7.5958
    -7.5951  -7.5935  -7.5926  -7.5910  -7.5887  -7.5864  -7.5838  -7.5806
    -7.5737  -7.5706  -7.5675  -7.5528  -7.5511  -7.5493  -7.5469  -7.5419
    -7.5382  -7.5365  -7.5349  -7.5344  -7.5330  -7.5258  -7.5254  -7.5240
    -7.5211  -7.5181  -7.5147  -7.5142  -7.5091  -7.5010  -7.4975  -7.4958
    -7.4942  -7.4913  -7.4909  -7.4903  -7.4899  -7.4825  -7.4778  -7.4677
    -7.4656  -7.4623  -7.4571  -7.4551  -7.4518  -7.4502  -7.4501  -7.4487
    -7.4478  -7.4459  -7.4435  -7.4417  -7.4376  -7.4357  -7.4325  -7.4275
    -7.4248  -7.4186  -7.4161  -7.4160  -7.4048  -7.3939  -7.3233  -7.3107
    -7.3087  -7.3046  -6.9302  -6.5861  -6.4119  -6.3877  -5.9275  -5.7170
    -5.6560  -5.6218  -5.5341  -5.5184  -5.5119  -5.5060  -5.4362  -5.2324
    -5.2283  -5.2153  -5.1375  -5.0381  -5.0132  -5.0099  -5.0047  -4.6731
    -4.4506  -4.4315  -4.4169  -4.3612  -4.1246  -4.0885  -3.5878  -3.3130
    -3.2780  -2.9886  -2.9709  -2.9643  -2.9547  -2.8492  -2.7434  -2.7281
    -2.4965  -2.4845  -2.4747  -2.4614  -2.4284  -2.2857  -2.1502  -1.9330
    -1.9156  -1.8893  -1.8629  -1.8415  -1.8309  -1.6405  -1.6188  -1.4260
    -1.4120  -1.3609  -1.2392  -1.0359  -1.0275  -0.7534  -0.7389  -0.7352
    -0.7280  -0.3591  -0.3452  -0.3302  -0.2595   0.2105   0.2991   0.3102
     0.4096   0.4339   0.6217   0.6287   0.6316   0.6947   0.7438   1.2582
     1.2787   1.2998   1.3379   1.3818   1.3902   1.4027   1.4142   1.4355
     1.4466   1.5184   1.5413   1.5900   1.6225   1.8641   1.8747   1.8912
     1.8984   1.9381   2.0900   2.1016   2.2416   2.2959   2.3142   2.3969
     2.5119   2.5651   2.5858   2.6861   2.7962   2.8215   2.8301   2.8493
     2.9448   3.0433   3.1383   3.1572   3.1700   3.1884   3.2584   3.2673
     3.4499   3.6346   3.6898   3.7473   3.8005   3.8658   3.8893   3.9293
     3.9935   4.0047   4.0331   4.0617   4.1311   4.1875   4.1965   4.2979
     4.3072   4.3415   4.3525   4.3688   4.3865   4.4158   4.4400   4.4667
     4.4972   4.5530   4.5679   4.6203   4.6636   4.6960   4.7271   4.7391
     4.7477   4.7734   4.7854   4.7993   4.8354   4.8545   4.9000   4.9285
     4.9937   5.0077   5.0651   5.0764   5.1345   5.1634   5.2306   5.2635
     5.2809   5.3057   5.3264   5.3415   5.3595   5.4179   5.4423   5.4839
     5.4925   5.5027   5.5158   5.5258   5.5432   5.6260   5.6692   5.6859
     5.7286   5.7405

     the Fermi energy is    -0.8028 ev

!    total energy              =  -27868.52978955 Ry
     estimated scf accuracy    <       0.00000045 Ry
     smearing contrib. (-TS)   =      -0.01872358 Ry
     internal energy E=F+TS    =  -27868.51106597 Ry

     The total energy is F=E-TS. E is the sum of the following terms:
     one-electron contribution = -159800.62739198 Ry
     hartree contribution      =   79735.34341859 Ry
     xc contribution           =   -2575.40801355 Ry
     ewald contribution        =   54815.36332501 Ry
     one-center paw contrib.   =     -43.18240404 Ry

     convergence has been achieved in  12 iterations

     negative rho (up, down):  2.308E-03 0.000E+00

     Forces acting on atoms (cartesian axes, Ry/au):

     atom    1 type  1   force =     0.00051735   -0.00012147   -0.00200576
     atom    2 type  1   force =     0.00004847   -0.00046059   -0.00234655
     atom    3 type  1   force =     0.00016451    0.00048086   -0.00246633
     atom    4 type  1   force =    -0.00014366    0.00050252   -0.00109171
     atom    5 type  1   force =    -0.00004441   -0.00041371   -0.00144760
     atom    6 type  1   force =    -0.00000375   -0.00123640   -0.00251414
     atom    7 type  1   force =    -0.00172957   -0.00031804   -0.00270632
     atom    8 type  1   force =     0.00053994    0.00127943   -0.00228209
     atom    9 type  1   force =    -0.00011692    0.00013118   -0.00167809
     atom   10 type  1   force =    -0.00120830   -0.00002428   -0.00159408
     atom   11 type  1   force =    -0.00007998   -0.00047411   -0.00226459
     atom   12 type  1   force =     0.00181953   -0.00040588   -0.00220566
     atom   13 type  1   force =    -0.00049583    0.00064856   -0.00202109
     atom   14 type  1   force =     0.00028986    0.00008145   -0.00226593
     atom   15 type  1   force =     0.00108148    0.00001055   -0.00190674
     atom   16 type  1   force =     0.00039808   -0.00109376    0.02192883
     atom   17 type  1   force =     0.00002774    0.00039211    0.02152153
     atom   18 type  1   force =     0.00003093    0.00008647    0.02255315
     atom   19 type  1   force =     0.00012546    0.00071160    0.02164257
     atom   20 type  1   force =    -0.00033536   -0.00011556    0.02356562
     atom   21 type  1   force =    -0.00010206   -0.00054225    0.02123201
     atom   22 type  1   force =    -0.00605207   -0.00273300    0.01970247
     atom   23 type  1   force =    -0.00303822    0.00274795    0.01724680
     atom   24 type  1   force =    -0.00052768   -0.00002910    0.02172910
     atom   25 type  1   force =     0.00014304   -0.00038540    0.02122579
     atom   26 type  1   force =    -0.00004236   -0.00064239    0.02131192
[...]
   -81.0736 -81.0733 -81.0726 -81.0721 -81.0702 -81.0696 -81.0681 -81.0678
   -81.0670 -81.0668 -81.0643 -81.0642 -81.0622 -81.0604 -81.0600 -81.0599
   -81.0589 -81.0586 -81.0580 -81.0579 -81.0574 -81.0556 -81.0530 -81.0503
   -81.0484 -81.0481 -81.0448 -81.0434 -81.0428 -81.0425 -81.0340 -81.0329
   -20.5612 -18.4608 -17.7929 -15.6974 -15.3695 -12.6152 -12.3979 -10.3322
   -10.1773  -9.7973  -9.6347  -9.1240  -9.0712  -8.8777  -8.8330  -8.7675
    -8.7103  -8.6604  -8.6405  -8.6390  -8.6141  -8.6077  -8.5977  -8.5936
    -8.5840  -8.5615  -8.5401  -8.5163  -8.4984  -8.4783  -8.4657  -8.4615
    -8.4538  -8.4421  -8.4391  -8.4361  -8.4260  -8.4215  -8.4108  -8.3971
    -8.3904  -8.3711  -8.3637  -8.3597  -8.3574  -8.3551  -8.3509  -8.3478
    -8.3462  -8.3425  -8.3382  -8.3352  -8.3327  -8.3306  -8.3225  -8.3181
    -8.3151  -8.3133  -8.3104  -8.3075  -8.3030  -8.3007  -8.2959  -8.2815
    -8.2772  -8.2678  -8.2656  -8.2638  -8.2588  -8.2586  -8.2570  -8.2547
    -8.2519  -8.2511  -8.2501  -8.2463  -8.2406  -8.2370  -8.2332  -8.2272
    -8.2227  -8.2179  -8.2133  -8.2133  -8.2119  -8.2108  -8.2087  -8.2036
    -8.1959  -8.1830  -8.1760  -8.1712  -8.1604  -8.1544  -8.1445  -8.1441
    -8.1412  -8.1368  -8.1347  -8.1303  -8.1291  -8.1286  -8.1271  -8.1257
    -8.1246  -8.1225  -8.1194  -8.1189  -8.1158  -8.1143  -8.1110  -8.1086
    -8.1068  -8.1057  -8.1019  -8.0931  -8.0875  -8.0860  -8.0788  -8.0766
    -8.0719  -8.0451  -8.0414  -8.0339  -8.0290  -8.0280  -8.0277  -8.0264
    -8.0229  -8.0221  -8.0164  -8.0042  -7.9865  -7.9780  -7.9761  -7.9678
    -7.9603  -7.9596  -7.9533  -7.9515  -7.9407  -7.9293  -7.9164  -7.9133
    -7.9092  -7.9073  -7.9034  -7.9001  -7.8987  -7.8976  -7.8938  -7.8915
    -7.8900  -7.8887  -7.8840  -7.8803  -7.8789  -7.8766  -7.8738  -7.8718
    -7.8687  -7.8616  -7.8578  -7.8544  -7.8532  -7.8485  -7.8449  -7.8395
    -7.8366  -7.8299  -7.8236  -7.8215  -7.8199  -7.8195  -7.8187  -7.8164
    -7.8107  -7.8073  -7.8037  -7.8009  -7.7983  -7.7957  -7.7912  -7.7863
    -7.7830  -7.7810  -7.7755  -7.7747  -7.7689  -7.7670  -7.7536  -7.7471
    -7.7386  -7.7367  -7.7351  -7.7338  -7.7324  -7.7304  -7.7259  -7.7236
    -7.7194  -7.7133  -7.7107  -7.7080  -7.7059  -7.7042  -7.7007  -7.6972
    -7.6905  -7.6843  -7.6824  -7.6780  -7.6746  -7.6729  -7.6702  -7.6685
    -7.6635  -7.6615  -7.6581  -7.6563  -7.6532  -7.6502  -7.6481  -7.6468
    -7.6399  -7.6381  -7.6351  -7.6339  -7.6311  -7.6302  -7.6283  -7.6232
    -7.6210  -7.6164  -7.6129  -7.6094  -7.6079  -7.6049  -7.6039  -7.6007
    -7.5995  -7.5953  -7.5946  -7.5934  -7.5922  -7.5861  -7.5783  -7.5760
    -7.5722  -7.5700  -7.5673  -7.5663  -7.5643  -7.5621  -7.5601  -7.5588
    -7.5553  -7.5530  -7.5529  -7.5520  -7.5515  -7.5503  -7.5472  -7.5452
    -7.5419  -7.5380  -7.5286  -7.5265  -7.5198  -7.5176  -7.5151  -7.5133
    -7.5111  -7.5068  -7.5049  -7.5011  -7.4945  -7.4904  -7.4832  -7.4813
    -7.4763  -7.4754  -7.4732  -7.4707  -7.4676  -7.4658  -7.4638  -7.4609
    -7.4574  -7.4561  -7.4530  -7.4511  -7.4504  -7.4480  -7.4414  -7.4351
    -7.4328  -7.4297  -7.4236  -7.4196  -7.4178  -7.4117  -7.4108  -7.4081
    -7.4053  -7.4019  -7.4000  -7.3992  -7.3952  -7.3845  -7.3788  -7.3631
    -7.3537  -7.3487  -7.3469  -7.3427  -7.3378  -7.2742  -7.2540  -7.2397
    -7.2355  -7.2267  -6.8491  -6.4082  -6.2556  -6.2345  -6.0137  -5.5926
    -5.5032  -5.4888  -5.4106  -5.4079  -5.3657  -5.3587  -5.3489  -5.3454
    -5.3314  -5.2408  -5.1965  -4.8791  -4.8479  -4.8307  -4.8203  -4.6234
    -4.6170  -4.5949  -4.5385  -4.5178  -3.9451  -3.9246  -3.4880  -3.4760
    -3.4371  -2.8681  -2.8600  -2.7915  -2.7670  -2.7542  -2.7441  -2.6836
    -2.6484  -2.6281  -2.6084  -2.5516  -2.3713  -2.2942  -2.1388  -2.0967
    -2.0765  -2.0535  -1.8262  -1.7135  -1.6886  -1.4868  -1.4647  -1.4566
    -1.4392  -1.3772  -1.2400  -0.8606  -0.8362  -0.6873  -0.6687  -0.6609
    -0.6547  -0.4121  -0.4033  -0.3877  -0.3106  -0.0615   0.4378   0.4595
     0.4711   0.4962   0.6048   0.6162   0.6236   0.6288   0.7295   1.0267
     1.0865   1.3319   1.3527   1.3611   1.3972   1.4200   1.4380   1.4774
     1.5033   1.5741   1.6118   1.6555   1.7032   1.9536   1.9976   2.0101
     2.0665   2.0851   2.1158   2.1384   2.2635   2.3073   2.3501   2.3968
     2.4661   2.4900   2.5024   2.6363   2.6663   2.7035   2.7139   2.8001
     2.9398   3.0061   3.0985   3.1738   3.2049   3.2238   3.3143   3.3919
     3.4498   3.6356   3.6877   3.7574   3.7842   3.8182   3.8426   3.8757
     3.8869   3.9200   3.9573   3.9825   4.0173   4.0511   4.0864   4.2708
     4.2992   4.3150   4.3324   4.3531   4.3646   4.3805   4.4048   4.4498
     4.4672   4.4777   4.5430   4.5484   4.5933   4.6223   4.6659   4.6757
     4.6812   4.6981   4.7123   4.7729   4.7996   4.8086   4.8575   4.8931
     4.9892   4.9975   5.0452   5.0891   5.1470   5.1796   5.2086   5.2222
     5.2393   5.2743   5.3064   5.3508   5.3563   5.3752   5.4068   5.4119
     5.4585   5.4755   5.4931   5.5158   5.5494   5.5747   5.6038   5.6497
     5.7177   5.7287

     the Fermi energy is    -0.7199 ev

!    total energy              =  -27868.63092154 Ry
     estimated scf accuracy    <       0.00000077 Ry
     smearing contrib. (-TS)   =      -0.02411047 Ry
     internal energy E=F+TS    =  -27868.60681107 Ry

     The total energy is F=E-TS. E is the sum of the following terms:
     one-electron contribution = -157678.28488687 Ry
     hartree contribution      =   78676.74516062 Ry
     xc contribution           =   -2574.93295587 Ry
     ewald contribution        =   53751.04905421 Ry
     one-center paw contrib.   =     -43.18318317 Ry

     convergence has been achieved in  12 iterations

     negative rho (up, down):  2.261E-03 0.000E+00

     Forces acting on atoms (cartesian axes, Ry/au):

     atom    1 type  1   force =     0.00105517   -0.00039576    0.00811919
     atom    2 type  1   force =    -0.00032622   -0.00043132    0.00711045
     atom    3 type  1   force =     0.00078654    0.00033837    0.00749396
     atom    4 type  1   force =    -0.00012550    0.00071031    0.00887872
     atom    5 type  1   force =     0.00013312   -0.00024368    0.00860049
     atom    6 type  1   force =     0.00043533   -0.00170343    0.00718428
     atom    7 type  1   force =    -0.00032742   -0.00106478    0.00860548
     atom    8 type  1   force =     0.00135050    0.00085689    0.00710956
     atom    9 type  1   force =    -0.00083459    0.00192219    0.00877858
     atom   10 type  1   force =    -0.00185624   -0.00052701    0.00939762
     atom   11 type  1   force =     0.00002819   -0.00140487    0.00737166
     atom   12 type  1   force =     0.00002538   -0.00042348    0.00972168
     atom   13 type  1   force =    -0.00074953    0.00009727    0.00730943
     atom   14 type  1   force =     0.00049193    0.00028185    0.00808869
     atom   15 type  1   force =     0.00144606    0.00095157    0.00856163
     atom   16 type  1   force =     0.00056919    0.00011679    0.00791117
     atom   17 type  1   force =    -0.00008809   -0.00044618    0.00758383
     atom   18 type  1   force =    -0.00011233    0.00035828    0.00923435
     atom   19 type  1   force =     0.00029771   -0.00018161    0.00698618
     atom   20 type  1   force =     0.00011412    0.00014601    0.00910941
     atom   21 type  1   force =     0.00056709   -0.00096971    0.00722736
     atom   22 type  1   force =    -0.00903392   -0.00453608    0.00657684
     atom   23 type  1   force =    -0.00133358    0.00140821    0.00288084
     atom   24 type  1   force =    -0.00058748    0.00070355    0.00795129
     atom   25 type  1   force =     0.00107450    0.00007130    0.00652514
     atom   26 type  1   force =    -0.00099843   -0.00064131    0.00775105
     atom   27 type  1   force =    -0.00203781    0.00115293    0.00584730
     atom   28 type  1   force =    -0.00292579   -0.00147560    0.00370067
     atom   29 type  1   force =     0.00193644    0.00155518    0.00804536
     atom   30 type  1   force =    -0.00123342   -0.00023309    0.00782248
     atom   31 type  1   force =     0.00050760   -0.00004868   -0.00866839
     atom   32 type  1   force =     0.00074491   -0.00094576   -0.00873799
     atom   33 type  1   force =     0.00020183    0.00009513   -0.00923815
     atom   34 type  1   force =    -0.00013637    0.00012837   -0.00829392
     atom   35 type  1   force =     0.00193710    0.00076416   -0.00954011
     atom   36 type  1   force =    -0.00040525   -0.00379506   -0.00901386
     atom   37 type  1   force =     0.00412869   -0.01567195   -0.04088092
     atom   38 type  1   force =     0.00242216    0.00892890   -0.01964728
     atom   39 type  1   force =    -0.00041347    0.00264876   -0.01389170
     atom   40 type  1   force =    -0.00113903   -0.00038516   -0.00430494
     atom   41 type  1   force =    -0.00082175   -0.00028072   -0.00865555
     atom   42 type  1   force =    -0.00043602   -0.00079864   -0.00886054
     atom   43 type  1   force =    -0.00039870    0.00045662   -0.00919211
     atom   44 type  1   force =    -0.00022326    0.00005295   -0.00809823
     atom   45 type  1   force =    -0.00023467    0.00049615   -0.00994467
     atom   46 type  1   force =    -0.00053552   -0.00009867   -0.00697573
     atom   47 type  1   force =     0.00075628   -0.00057729   -0.00889244
     atom   48 type  1   force =     0.00033061   -0.00016832   -0.00762669
     atom   49 type  1   force =     0.00053775    0.00005088   -0.00844826
     atom   50 type  1   force =    -0.00003052    0.00069661   -0.00736030
     atom   51 type  1   force =    -0.00039210   -0.00033586   -0.01203960
     atom   52 type  1   force =     0.00047798   -0.00191577   -0.01022199
     atom   53 type  1   force =     0.00479916    0.01725946    0.04189102
     atom   54 type  1   force =     0.00136382   -0.00797161   -0.01475160
     atom   55 type  1   force =    -0.00034895    0.00759152   -0.01031722
     atom   56 type  1   force =     0.00062826    0.00060756   -0.00678724
     atom   57 type  1   force =    -0.00058977   -0.00011105   -0.00852182
     atom   58 type  1   force =    -0.00128509    0.00003793   -0.00725597
     atom   59 type  1   force =    -0.00067243   -0.00040981   -0.00833436
     atom   60 type  1   force =    -0.00002925   -0.00008409   -0.00724654
     atom   61 type  2   force =    -0.00736993   -0.04804383    0.15732408
     atom   62 type  2   force =    -0.02570067    0.03076258   -0.02574911
     atom   63 type  2   force =    -0.00591668   -0.02350413    0.07093209
     atom   64 type  2   force =     0.03180964   -0.03389856    0.01539682
     atom   65 type  2   force =    -0.06722587    0.06567684   -0.03086024
     atom   66 type  2   force =    -0.01109263    0.00729620    0.00464891
     atom   67 type  2   force =     0.04622652   -0.02894675   -0.01568362
     atom   68 type  3   force =     0.00694700    0.03388234   -0.11419503
     atom   69 type  3   force =     0.02800082   -0.00594955   -0.03763816
     atom   70 type  4   force =     0.01404991   -0.00297198    0.00515764
     atom   71 type  4   force =    -0.02036639    0.02429369   -0.02168243
     atom   72 type  4   force =    -0.01556505    0.01498147   -0.00365443
     atom   73 type  4   force =     0.01220365   -0.00929646   -0.00374928
     atom   74 type  4   force =    -0.00867550    0.00502474    0.00708118
     atom   75 type  4   force =     0.02419024   -0.03151593    0.02504400

     Total force =     0.284138     Total SCF correction =     0.007951
     Energy error            =      5.5E-02 Ry
     Gradient error          =      1.6E-01 Ry/Bohr

     number of scf cycles    =   6
     number of bfgs steps    =   5

     energy             old  =  -27868.5763264227 Ry
     energy             new  =  -27868.6309215403 Ry

     CASE: energy            _new < energy            _old

     new trust radius        =       0.0617554875 bohr
     new conv_thr            =       0.0000010000 Ry


ATOMIC_POSITIONS (angstrom)
Zn               1.2211614473        1.3050306061        0.7186527587
Zn               1.2192653206        3.9205665314        0.7163932202
Zn               1.2180860121        6.5401610452        0.7144080403
Zn               1.2173305861        9.1522628774        0.7235261869
Zn               1.2178755504       11.7611380449        0.7207344521
Zn               6.0896128740        1.2993364096        0.7148127986
Zn               6.0825591988        3.9192183665        0.7163478331
Zn               6.0930363292        6.5452010090        0.7163820182
Zn               6.0921495591        9.1494008960        0.7224850482
Zn               6.0843155006       11.7654013628        0.7244835494
Zn              10.9649768692        1.3057606431        0.7172354290
Zn              10.9747697766        3.9185527698        0.7165531907
Zn              10.9623466834        6.5406931971        0.7193447093
Zn              10.9657819639        9.1519546058        0.7170710881
Zn              10.9707458365       11.7618803552        0.7212896991
Zn               1.2210331837       -0.0087546740        3.2056182646
Zn               1.2185304089        2.6152811748        3.2013939452
Zn               1.2181961251        5.2305360332        3.2055691227
Zn               1.2188390708        7.8498233202        3.2020047164
Zn               1.2155969303       10.4564173963        3.2154364701
Zn               6.0926055554       -0.0060342395        3.1996039872
Zn               6.0579914063        2.5986867867        3.1886797770
Zn               6.0738719243        5.2450219720        3.1669168629
Zn               6.0895837179        7.8451876808        3.2015481543
Zn               6.0922890751       10.4551823197        3.1992934496
Zn              10.9625573368       -0.0044829555        3.1996567575
Zn              10.9672977568        2.6115921447        3.1973694054
Zn              10.9637362432        5.2342270478        3.1830680768
Zn              10.9695241082        7.8470760379        3.1997821675
Zn              10.9612569067       10.4572445298        3.2017246952
Zn               3.6556483828       -0.0008838470        1.3239315323
Zn               3.6563175245        2.6146186834        1.3245592271
Zn               3.6575449522        5.2285149367        1.3218131761
Zn               3.6543318976        7.8419896371        1.3271440955
Zn               3.6598308667       10.4590682932        1.3194977970
Zn               8.5285618610       -0.0145566517        1.3256193735
Zn               8.5370485217        2.5409202274        1.2057671872
Zn               8.5344595992        5.2772129514        1.2931237687
Zn               8.5260730488        7.8595210451        1.3021573268
Zn               8.5256024526       10.4537554933        1.3373097182
Zn              13.4020879652       -0.0022974124        1.3261026012
Zn              13.3968879365        2.6168860006        1.3216623207
Zn              13.3994582545        5.2296836113        1.3193279713
Zn              13.4025767115        7.8427721969        1.3299360197
Zn              13.3999582237       10.4562132524        1.3168981188
Zn               3.6443188082       -1.3111710590        3.8166409983
Zn               3.6543939097        1.3058334534        3.8059442002
Zn               3.6541341561        3.9227139011        3.8122469515
Zn               3.6549920782        6.5348868327        3.8071519961
Zn               3.6495112114        9.1548883984        3.8101838054
Zn               8.5271359314       -1.3079326970        3.7958531837
Zn               8.5316522732        1.2613396935        3.7806381146
Zn               8.3578115390        3.7707483533        3.2303626576
Zn               8.5606641666        6.6384955419        3.6727264716
Zn               8.5266340536        9.1714097239        3.7978805140
Zn              13.4134688889       -1.3140335055        3.8166500869
Zn              13.4015218785        1.3072088000        3.8049745966
Zn              13.4010887338        3.9233333105        3.8142544971
Zn              13.4012555918        6.5353501665        3.8082235462
Zn              13.4098452504        9.1558502852        3.8133234560
C                8.0239848943        2.8984732430       11.1406359896
C                8.1041114784        3.2949616114        9.7878850241
C                7.2038893649        4.2611397054        9.2878432361
C                9.0828077645        2.7181261433        8.9334728484
C                7.2656029786        4.6476258817        7.9721352721
C                9.1545710635        3.1079042711        7.6201162942
C                8.2481910016        4.0700903491        7.1729297554
N                7.9493280026        2.5707720872       12.2657926068
N                8.3880964547        4.4899369518        5.8830344337
H                7.7562241187        5.1803513256        5.4570434935
H                9.2685272264        4.2422976363        5.5013892599
H                9.7735354159        1.9709196800        9.3272315156
H                6.4502782273        4.7193555656        9.9365718910
H                9.9050097001        2.6857861438        6.9417313574
H                6.6135603820        5.4075784932        7.5333998385



     Writing config-only to output data dir /home/ys/Research/PSID_server_room/qe/zinc_surface_ABN.relax/Zn_100_ABN/pwscf.save/ :
     XML data file
     NEW-OLD atomic charge density approx. for the potential

     negative rho (up, down):  2.380E-03 0.000E+00

     total cpu time spent up to now is    11419.7 secs

     Self-consistent Calculation

     iteration #  1     ecut=    50.00 Ry     beta= 0.70
     Davidson diagonalization with overlap
     ethr =  1.00E-06,  avg # of iterations = 14.0

     negative rho (up, down):  2.247E-03 0.000E+00

     total cpu time spent up to now is    11650.8 secs

     total energy              =  -27868.65025778 Ry
     estimated scf accuracy    <       0.00577526 Ry

     iteration #  2     ecut=    50.00 Ry     beta= 0.70
     Davidson diagonalization with overlap
     ethr =  4.64E-07,  avg # of iterations =  5.0

     negative rho (up, down):  2.264E-03 0.000E+00

     total cpu time spent up to now is    11762.1 secs

     total energy              =  -27868.64690482 Ry
     estimated scf accuracy    <       0.02477232 Ry

     iteration #  3     ecut=    50.00 Ry     beta= 0.70
     Davidson diagonalization with overlap
     ethr =  4.64E-07,  avg # of iterations =  7.0

     negative rho (up, down):  2.277E-03 0.000E+00

     total cpu time spent up to now is    11875.0 secs

     total energy              =  -27868.64463601 Ry
     estimated scf accuracy    <       0.15812931 Ry

     iteration #  4     ecut=    50.00 Ry     beta= 0.70
     Davidson diagonalization with overlap
     ethr =  4.64E-07,  avg # of iterations =  7.0

     negative rho (up, down):  2.266E-03 0.000E+00

     total cpu time spent up to now is    11985.1 secs

     total energy              =  -27868.65178482 Ry
     estimated scf accuracy    <       0.00364608 Ry

     iteration #  5     ecut=    50.00 Ry     beta= 0.70
     Davidson diagonalization with overlap
     ethr =  2.93E-07,  avg # of iterations =  4.0

     negative rho (up, down):  2.264E-03 0.000E+00

     total cpu time spent up to now is    12088.4 secs

     total energy              =  -27868.65186715 Ry
     estimated scf accuracy    <       0.00433047 Ry

     iteration #  6     ecut=    50.00 Ry     beta= 0.70
     Davidson diagonalization with overlap
     ethr =  2.93E-07,  avg # of iterations =  2.0

     negative rho (up, down):  2.264E-03 0.000E+00

     total cpu time spent up to now is    12189.9 secs

     total energy              =  -27868.65215975 Ry
     estimated scf accuracy    <       0.00170970 Ry

     iteration #  7     ecut=    50.00 Ry     beta= 0.70
     Davidson diagonalization with overlap
