
                                 *****************
                                 * O   R   C   A *
                                 *****************

                                            #,                                       
                                            ###                                      
                                            ####                                     
                                            #####                                    
                                            ######                                   
                                           ########,                                 
                                     ,,################,,,,,                         
                               ,,#################################,,                 
                          ,,##########################################,,             
                       ,#########################################, ''#####,          
                    ,#############################################,,   '####,        
                  ,##################################################,,,,####,       
                ,###########''''           ''''###############################       
              ,#####''   ,,,,##########,,,,          '''####'''          '####       
            ,##' ,,,,###########################,,,                        '##       
           ' ,,###''''                  '''############,,,                           
         ,,##''                                '''############,,,,        ,,,,,,###''
      ,#''                                            '''#######################'''  
     '                                                          ''''####''''         
             ,#######,   #######,   ,#######,      ##                                
            ,#'     '#,  ##    ##  ,#'     '#,    #''#        ,####,   ,####,        
            ##       ##  ##   ,#'  ##            #'  '#       #'       #'  '#        
            ##       ##  #######   ##           ,######,      #####,   #    #        
            '#,     ,#'  ##    ##  '#,     ,#' ,#      #,     #,   #   #,  ,#        
             '#######'   ##     ##  '#######'  #'      '#     '####' # '####'        



                #########################################################
                #                        -***-                          #
                #          Department of theory and spectroscopy        #
                #                                                       #
                #                      Frank Neese                      #
                #                                                       #
                #     Directorship, Architecture, Infrastructure        #
                #                    SHARK, DRIVERS                     #
                #        Core code/Algorithms in most modules           #
                #                                                       #
                #        Max Planck Institute fuer Kohlenforschung      #
                #                Kaiser Wilhelm Platz 1                 #
                #                 D-45470 Muelheim/Ruhr                 #
                #                      Germany                          #
                #                                                       #
                #                  All rights reserved                  #
                #                        -***-                          #
                #########################################################


                         Program Version 6.0.1  -  RELEASE   -


 With contributions from (in alphabetic order):
[Max-Planck-Institut fuer Kohlenforschung]                               
  Daniel Aravena         : Magnetic Suceptibility                        
  Michael Atanasov       : Ab Initio Ligand Field Theory (pilot matlab implementation)
  Alexander A. Auer      : GIAO ZORA, VPT2 properties, NMR spectrum      
  Ute Becker             : All parallelization in ORCA, NUMFREQ, NUMCALC 
  Giovanni Bistoni       : ED, misc. LED, open-shell LED, HFLD           
  Martin Brehm           : Molecular dynamics                            
  Dmytro Bykov           : pre 5.0 version of the SCF Hessian            
  Marcos Casanova-Páez   : Triplet and SCS-CIS(D). UHF-(DLPNO)-IP/EA/STEOM-CCSD. UHF-CVS-IP/STEOM-CCSD   
  Vijay G. Chilkuri      : MRCI spin determinant printing, contributions to CSF-ICE 
  Pauline Colinet        : FMM embedding                                 
  Dipayan Datta          : RHF DLPNO-CCSD density                        
  Achintya Kumar Dutta   : EOM-CC, STEOM-CC                              
  Nicolas Foglia         : Exact transition moments, OPA infrastructure, MCD improvements    
  Dmitry Ganyushin       : Spin-Orbit,Spin-Spin,Magnetic field MRCI      
  Miquel Garcia-Rates    : C-PCM and meta-GGA Hessian, CCSD/C-PCM, Gaussian charge scheme 
  Tiago L. C. Gouveia    : GS-ROHF, GS-ROCIS                             
  Yang Guo               : DLPNO-NEVPT2, F12-NEVPT2, CIM, IAO-localization        
  Andreas Hansen         : Spin unrestricted coupled pair/coupled cluster methods 
  Ingolf Harden          : AUTO-CI MPn and infrastructure                
  Benjamin Helmich-Paris : MC-RPA, TRAH-(SCF,CASSCF), AVAS, COSX integrals, SCF dyn. polar. 
  Lee Huntington         : MR-EOM, pCC                                   
  Robert Izsak           : Overlap fitted RIJCOSX, COSX-SCS-MP3, EOM     
  Riya Kayal             : Wick's Theorem for AUTO-CI, AUTO-CI UHF-CCSDT 
  Emily Kempfer          : AUTO-CI, RHF CISDT and CCSDT                  
  Christian Kollmar      : KDIIS, OOCD, Brueckner-CCSD(T), CCSD density, CASPT2, CASPT2-K, improved NEVPT2 
  Axel Koslowski         : Symmetry handling                             
  Simone Kossmann        : meta-GGA functionals, TD-DFT gradient, OOMP2, (MP2 Hessian; deprecated post 5.0) 
  Lucas Lang             : DCDCAS                                        
  Marvin Lechner         : AUTO-CI (C++ implementation), FIC-MRCC        
  Spencer Leger          : CASSCF response                               
  Dagmar Lenk            : GEPOL surface, SMD, ORCA-2-JSON               
  Dimitrios Liakos       : Extrapolation schemes; Compound Job, initial MDCI parallelization 
  Dimitrios Manganas     : Further ROCIS development; embedding schemes. LFT, Crystal Embedding 
  Dimitrios Pantazis     : SARC Basis sets                               
  Anastasios Papadopoulos: AUTO-CI, single reference methods and gradients 
  Taras Petrenko         : pre 6.0 DFT Hessian and TD-DFT gradient, (ASA, deprecated), ECA, 1-Electron XAS/XES, NRVS 
  Peter Pinski           : DLPNO-MP2, DLPNO-MP2 Gradient                 
  Christoph Reimann      : Effective Core Potentials                     
  Marius Retegan         : Local ZFS, SOC                                
  Christoph Riplinger    : Optimizer, TS searches, QM/MM, DLPNO-CCSD(T), (RO)-DLPNO pert. Triples 
  Michael Roemelt        : Original ROCIS implementation                 
  Masaaki Saitow         : Open-shell DLPNO-CCSD energy and density      
  Barbara Sandhoefer     : DKH picture change effects                    
  Kantharuban Sivalingam : CASSCF convergence/infrastructure, NEVPT2 and variants, FIC-MRCI 
  Bernardo de Souza      : ESD, SOC TD-DFT                               
  Georgi L. Stoychev     : AutoAux, RI-MP2 NMR, DLPNO-MP2 response, X2C  
  Van Anh Tran           : RI-MP2 g-tensors                              
  Willem Van den Heuvel  : Paramagnetic NMR                              
  Zikuan Wang            : NOTCH, Electric field optimization            
  Frank Wennmohs         : Technical directorship and infrastructure     
  Hang Xu                : AUTO-CI-Response properties                   
                                                                         
[FACCTs GmbH]                                                            
  Markus Bursch, Miquel Garcia-Rates, Christoph Riplinger, Bernardo de Souza, Georgi L. Stoychev 
                                                                 
  APM, Basis sets (HGBS, AHGBS, def-TZVP (Ac-Lr), def2-XVPD (La-Lu)), CI-OPT, improved COSX, DLPNO-Multilevel,           
  DOCKER, DRACO, updates on ESD, GOAT, IRC, LR-CPCM, MBIS, meta-GGA TD-DFT gradient, ML-optimized integration grids, 
  MM, NACMEs, nearIR, NEB, NEB-TS, NL-DFT gradient (VV10), 2- and 3-layer-ONIOM, interface openCOSMO-RS, QMMM,   
  Crystal-QMMM, SF, symmetry and pop. for TD-DFT, r2SCAN hybrids, SOLVATOR                                   
                                                                         
[Other institutions]                                                     
  V. Asgeirsson          : NEB                                           
  Christoph Bannwarth    : sTDA-DFT, sTD-DFT, PBEh-3c, B97-3c, D3        
  Sebastian Ehlert       : rSCAN, r2SCAN, r2SCAN-3c, D4, dhf basis sets  
  Marvin Friede          : D4 for Fr, Ra, Ac-Lr                          
  Lars Goerigk           : TD-DFT with DH, B97 family of functionals     
  Stefan Grimme          : VdW corrections, initial TS optimization, DFT functionals, gCP, sTDA/sTD-DF 
  Waldemar Hujo          : DFT-NL                                        
  H. Jonsson             : NEB                                           
  Holger Kruse           : gCP                                           
  Marcel Mueller         : wB97X-3c, vDZP basis set                      
  Hagen Neugebauer       : wr2SCAN                                       
  Tobias Risthaus        : range-separated hybrid DFT                    
  Lukas Wittmann         : regularized MP2, r2SCAN double-hybrids, wr2SCAN        
                                                                         
We gratefully acknowledge several colleagues who have allowed us to      
interface, adapt or use parts of their codes:                            
  Ed Valeev, F. Pavosevic, A. Kumar             : LibInt (2-el integral package), F12 methods 
  Garnet Chan, S. Sharma, J. Yang, R. Olivares  : DMRG                   
  Ulf Ekstrom                                   : XCFun DFT Library      
  Mihaly Kallay                                 : mrcc  (arbitrary order and MRCC methods)
  Frank Weinhold                                : gennbo (NPA and NBO analysis)           
  Simon Mueller                                 : openCOSMO-RS                            
  Christopher J. Cramer and Donald G. Truhlar   : smd solvation model                     
  S Lehtola, MJT Oliveira, MAL Marques          : LibXC Library                           
  Liviu Ungur et al                             : ANISO software                          


 Your calculation uses the libint2 library for the computation of 2-el integrals
 For citations please refer to: http://libint.valeyev.net

 Your ORCA version has been built with support for libXC version: 6.2.2
 For citations please refer to: https://libxc.gitlab.io

 This ORCA versions uses:
   CBLAS   interface :  Fast vector & matrix operations
   LAPACKE interface :  Fast linear algebra routines
   SCALAPACK package :  Parallel linear algebra routines
   Shared memory     :  Shared parallel matrices
   BLAS/LAPACK       :  OpenBLAS 0.3.27  USE64BITINT DYNAMIC_ARCH NO_AFFINITY SkylakeX SINGLE_THREADED
        Core in use  :  SkylakeX
   Copyright (c) 2011-2014, The OpenBLAS Project


NOTE: MaxCore=5000 MB was set to SCF,MP2,MDCI,CIPSI,MRCI and CIS
      => If you want to overwrite this, your respective input block should be placed after the MaxCore statement
Warning: RI is on but no J-basis has been assigned. Assigning Def2/J (nothing to worry about!)
================================================================================

----- Orbital basis set information -----
Your calculation utilizes the basis: def2-SVP
   F. Weigend and R. Ahlrichs, Phys. Chem. Chem. Phys. 7, 3297 (2005).

----- AuxJ basis set information -----
Your calculation utilizes the auxiliary basis: def2/J
   F. Weigend, Phys. Chem. Chem. Phys. 8, 1057 (2006).

================================================================================
                                        WARNINGS
                       Please study these warnings very carefully!
================================================================================

WARNING: Old DensityContainer found on disk!
         Will remove this file - 
         If you want to keep old densities, please start your calculation with a different basename. 


================================================================================
                                       INPUT FILE
================================================================================
NAME = /home/ys/Research/PSID_server_room/orca/4nitroaniline_water_3/4nitroaniline_water_3.inp
|  1> ! B3LYP def2-SVP SP TightSCF ALLPOP KEEPDENS
|  2> 
|  3> %maxcore 5000
|  4> 
|  5> %pal
|  6> nprocs 20
|  7> end
|  8> 
|  9> * xyz 0 1
| 10>   O          -2.39738432029708      7.88767853901665      0.56008712905688
| 11>   O          -2.19572676282571      5.82558197183011     -0.07202020080325
| 12>   N          -2.85853145473574      6.82217383128086      0.17754186564761
| 13>   N          -8.45753968272795      6.47774104035978     -0.43994270345528
| 14>   C          -4.31232855500291      6.73287114630006      0.00571570577980
| 15>   C          -7.07424543382966      6.56670395849996     -0.33142255152655
| 16>   C          -5.10692768169447      7.84636158896585      0.29241222460546
| 17>   C          -4.87630074066452      5.53530265912102     -0.43669856750140
| 18>   C          -6.48275032895989      7.76208712910974      0.12962041614670
| 19>   C          -6.25357272353526      5.45503821394194     -0.60438750649980
| 20>   H          -4.63066132924113      8.75979804425142      0.64738425206190
| 21>   H          -4.22453374056660      4.68826653905043     -0.64822455626904
| 22>   H          -7.12144586455197      8.60475588248632      0.40001222513933
| 23>   H          -6.70452578830288      4.52364202014323     -0.95643865887994
| 24>   H          -8.94011923213887      7.32785295395154     -0.71629666385601
| 25>   H          -8.82146326250102      5.65066256968721     -0.90289779027027
| 26>   O          -8.81358695855075      7.49432698881838      2.31641747870845
| 27>   H          -7.97122530250585      7.19687634653477      2.68497188919602
| 28>   H          -8.86001083736742      7.01898857665045      1.47041601271940
| 29> *
| 30> 
| 31>                          ****END OF INPUT****
================================================================================

                       ****************************
                       * Single Point Calculation *
                       ****************************

---------------------------------
CARTESIAN COORDINATES (ANGSTROEM)
---------------------------------
  O     -2.397384    7.887679    0.560087
  O     -2.195727    5.825582   -0.072020
  N     -2.858531    6.822174    0.177542
  N     -8.457540    6.477741   -0.439943
  C     -4.312329    6.732871    0.005716
  C     -7.074245    6.566704   -0.331423
  C     -5.106928    7.846362    0.292412
  C     -4.876301    5.535303   -0.436699
  C     -6.482750    7.762087    0.129620
  C     -6.253573    5.455038   -0.604388
  H     -4.630661    8.759798    0.647384
  H     -4.224534    4.688267   -0.648225
  H     -7.121446    8.604756    0.400012
  H     -6.704526    4.523642   -0.956439
  H     -8.940119    7.327853   -0.716297
  H     -8.821463    5.650663   -0.902898
  O     -8.813587    7.494327    2.316417
  H     -7.971225    7.196876    2.684972
  H     -8.860011    7.018989    1.470416

----------------------------
CARTESIAN COORDINATES (A.U.)
----------------------------
  NO LB      ZA    FRAG     MASS         X           Y           Z
   0 O     8.0000    0    15.999   -4.530400   14.905552    1.058411
   1 O     8.0000    0    15.999   -4.149322   11.008754   -0.136098
   2 N     7.0000    0    14.007   -5.401842   12.892040    0.335506
   3 N     7.0000    0    14.007  -15.982434   12.241157   -0.831371
   4 C     6.0000    0    12.011   -8.149120   12.723283    0.010801
   5 C     6.0000    0    12.011  -13.368386   12.409272   -0.626298
   6 C     6.0000    0    12.011   -9.650695   14.827475    0.552579
   7 C     6.0000    0    12.011   -9.214873   10.460206   -0.825241
   8 C     6.0000    0    12.011  -12.250623   14.668219    0.244947
   9 C     6.0000    0    12.011  -11.817540   10.308528   -1.142127
  10 H     1.0000    0     1.008   -8.750682   16.553619    1.223379
  11 H     1.0000    0     1.008   -7.983212    8.859540   -1.224967
  12 H     1.0000    0     1.008  -13.457582   16.260632    0.755914
  13 H     1.0000    0     1.008  -12.669718    8.548445   -1.807407
  14 H     1.0000    0     1.008  -16.894377   13.847635   -1.353605
  15 H     1.0000    0     1.008  -16.670150   10.678205   -1.706230
  16 O     8.0000    0    15.999  -16.655266   14.162226    4.377395
  17 H     1.0000    0     1.008  -15.063433   13.600125    5.073862
  18 H     1.0000    0     1.008  -16.742994   13.263966    2.778684

--------------------------------
INTERNAL COORDINATES (ANGSTROEM)
--------------------------------
 O      0   0   0     0.000000000000     0.00000000     0.00000000
 O      1   0   0     2.166210446690     0.00000000     0.00000000
 N      1   2   0     1.222414757914    27.63194507     0.00000000
 N      3   1   2     5.643475372292   117.49744356   179.50741965
 C      3   1   2     1.466637381054   117.62462573   179.99012159
 C      4   3   1     1.390393470646     1.81212042   102.27901104
 C      5   3   1     1.397656478522   119.40656528   359.41950236
 C      5   3   1     1.395695273649   119.33563408   179.64488883
 C      7   5   3     1.387981020841   119.41364567   179.98835744
 C      8   5   3     1.389762597073   119.22569149   180.28236666
 H      7   5   3     1.089587507546   119.09165065   359.47929748
 H      8   5   3     1.089501562663   119.13708867   359.88970902
 H      9   7   5     1.091391014015   120.27482132   176.71418603
 H     10   8   5     1.093067953212   119.79663143   179.61663470
 H      4   3   1     1.015846838145   116.74364790    31.85224139
 H      4   3   1     1.015296302058   117.07945280   169.99703670
 O     13   9   7     2.787293114439   102.59270408   238.89589660
 H     17  13   9     0.966375909085    81.70078624    49.91821134
 H     17  13   9     0.971504124058    67.98832323   302.32687080

---------------------------
INTERNAL COORDINATES (A.U.)
---------------------------
 O      0   0   0     0.000000000000     0.00000000     0.00000000
 O      1   0   0     4.093544492684     0.00000000     0.00000000
 N      1   2   0     2.310029114520    27.63194507     0.00000000
 N      3   1   2    10.664622897161   117.49744356   179.50741965
 C      3   1   2     2.771542987964   117.62462573   179.99012159
 C      4   3   1     2.627462877912     1.81212042   102.27901104
 C      5   3   1     2.641187973707   119.40656528   359.41950236
 C      5   3   1     2.637481833606   119.33563408   179.64488883
 C      7   5   3     2.622904008469   119.41364567   179.98835744
 C      8   5   3     2.626270699635   119.22569149   180.28236666
 H      7   5   3     2.059021988204   119.09165065   359.47929748
 H      8   5   3     2.058859575912   119.13708867   359.88970902
 H      9   7   5     2.062430121511   120.27482132   176.71418603
 H     10   8   5     2.065599077336   119.79663143   179.61663470
 H      4   3   1     1.919672318104   116.74364790    31.85224139
 H      4   3   1     1.918631955673   117.07945280   169.99703670
 O     13   9   7     5.267220641254   102.59270408   238.89589660
 H     17  13   9     1.826185810589    81.70078624    49.91821134
 H     17  13   9     1.835876732445    67.98832323   302.32687080

---------------------
BASIS SET INFORMATION
---------------------
There are 4 groups of distinct atoms

 Group   1 Type O   : 7s4p1d contracted to 3s2p1d pattern {511/31/1}
 Group   2 Type N   : 7s4p1d contracted to 3s2p1d pattern {511/31/1}
 Group   3 Type C   : 7s4p1d contracted to 3s2p1d pattern {511/31/1}
 Group   4 Type H   : 4s1p contracted to 2s1p pattern {31/1}

Atom   0O    basis set group =>   1
Atom   1O    basis set group =>   1
Atom   2N    basis set group =>   2
Atom   3N    basis set group =>   2
Atom   4C    basis set group =>   3
Atom   5C    basis set group =>   3
Atom   6C    basis set group =>   3
Atom   7C    basis set group =>   3
Atom   8C    basis set group =>   3
Atom   9C    basis set group =>   3
Atom  10H    basis set group =>   4
Atom  11H    basis set group =>   4
Atom  12H    basis set group =>   4
Atom  13H    basis set group =>   4
Atom  14H    basis set group =>   4
Atom  15H    basis set group =>   4
Atom  16O    basis set group =>   1
Atom  17H    basis set group =>   4
Atom  18H    basis set group =>   4
---------------------------------
AUXILIARY/J BASIS SET INFORMATION
---------------------------------
There are 4 groups of distinct atoms

 Group   1 Type O   : 12s5p4d2f1g contracted to 6s4p3d1f1g pattern {711111/2111/211/2/1}
 Group   2 Type N   : 12s5p4d2f1g contracted to 6s4p3d1f1g pattern {711111/2111/211/2/1}
 Group   3 Type C   : 12s5p4d2f1g contracted to 6s4p3d1f1g pattern {711111/2111/211/2/1}
 Group   4 Type H   : 5s2p1d contracted to 3s1p1d pattern {311/2/1}

Atom   0O    basis set group =>   1
Atom   1O    basis set group =>   1
Atom   2N    basis set group =>   2
Atom   3N    basis set group =>   2
Atom   4C    basis set group =>   3
Atom   5C    basis set group =>   3
Atom   6C    basis set group =>   3
Atom   7C    basis set group =>   3
Atom   8C    basis set group =>   3
Atom   9C    basis set group =>   3
Atom  10H    basis set group =>   4
Atom  11H    basis set group =>   4
Atom  12H    basis set group =>   4
Atom  13H    basis set group =>   4
Atom  14H    basis set group =>   4
Atom  15H    basis set group =>   4
Atom  16O    basis set group =>   1
Atom  17H    basis set group =>   4
Atom  18H    basis set group =>   4

Checking for AutoStart:
The File: /home/ys/Research/PSID_server_room/orca/4nitroaniline_water_3/4nitroaniline_water_3.gbw exists
Trying to determine its content:
     ... Fine, the file contains calculation information
     ... Fine, the calculation information was read
     ... Fine, the file contains a basis set
     ... Fine, the basis set was read
     ... Fine, the file contains a geometry
     ... Fine, the geometry was read
     ... Fine, the file contains a set of orbitals
     ... Fine, the orbitals can be read
     => possible old guess file was deleted
     => GBW file was renamed to GES file
     => GES file is set as startup file
     => Guess is set to MORead
     ... now leaving AutoStart



           ************************************************************
           *        Program running with 20 parallel MPI-processes    *
           *              working on a common directory               *
           ************************************************************
------------------------------------------------------------------------------
                             ORCA STARTUP CALCULATIONS
                           -- RI-GTO INTEGRALS CHOSEN --
------------------------------------------------------------------------------
------------------------------------------------------------------------------
                   ___                                                        
                  /   \      - P O W E R E D   B Y -                         
                 /     \                                                     
                 |  |  |   _    _      __       _____    __    __             
                 |  |  |  | |  | |    /  \     |  _  \  |  |  /  |          
                  \  \/   | |  | |   /    \    | | | |  |  | /  /          
                 / \  \   | |__| |  /  /\  \   | |_| |  |  |/  /          
                |  |  |   |  __  | /  /__\  \  |    /   |      \           
                |  |  |   | |  | | |   __   |  |    \   |  |\   \          
                \     /   | |  | | |  |  |  |  | |\  \  |  | \   \       
                 \___/    |_|  |_| |__|  |__|  |_| \__\ |__|  \__/        
                                                                              
                      - O R C A' S   B I G   F R I E N D -                    
                                      &                                       
                       - I N T E G R A L  F E E D E R -                       
                                                                              
 v1 FN, 2020, v2 2021, v3 2022-2024                                           
------------------------------------------------------------------------------


----------------------
SHARK INTEGRAL PACKAGE
----------------------

Number of atoms                             ...     19
Number of basis functions                   ...    194
Number of shells                            ...     90
Maximum angular momentum                    ...      2
Integral batch strategy                     ... SHARK/LIBINT Hybrid
RI-J (if used) integral strategy            ... SPLIT-RIJ (Revised 2003 algorithm where possible)
Printlevel                                  ...      1
Contraction scheme used                     ... SEGMENTED contraction
Prescreening option                         ... SCHWARTZ
   Thresh                                   ... 2.500e-11
   Tcut                                     ... 2.500e-12
   Tpresel                                  ... 2.500e-12 
Coulomb Range Separation                    ... NOT USED
Exchange Range Separation                   ... NOT USED
Multipole approximations                    ... NOT USED
Finite Nucleus Model                        ... NOT USED
CABS basis                                  ... NOT available
Auxiliary Coulomb fitting basis             ... AVAILABLE
   # of basis functions in Aux-J            ...    627
   # of shells in Aux-J                     ...    205
   Maximum angular momentum in Aux-J        ...      4
Auxiliary J/K fitting basis                 ... NOT available
Auxiliary Correlation fitting basis         ... NOT available
Auxiliary 'external' fitting basis          ... NOT available

Checking pre-screening integrals            ... done (  0.0 sec) Dimension = 90
Check shell pair data                       ... done (  0.0 sec)
Shell pair information
Shell pair cut-off parameter TPreSel        ...   2.5e-12
Total number of shell pairs                 ...      4095
Shell pairs after pre-screening             ...      3566
Total number of primitive shell pairs       ...     15045
Primitive shell pairs kept                  ...      9137
          la=0 lb=0:   1078 shell pairs
          la=1 lb=0:   1294 shell pairs
          la=1 lb=1:    413 shell pairs
          la=2 lb=0:    448 shell pairs
          la=2 lb=1:    279 shell pairs
          la=2 lb=2:     54 shell pairs

Calculating one electron integrals          ... done (  0.0 sec)
Calculating RI/J V-Matrix + Cholesky decomp.... done (  0.0 sec)
Calculating Nuclear repulsion               ... done (  0.0 sec) ENN=    591.016321298669 Eh

Diagonalization of the overlap matrix:
Smallest eigenvalue                        ... 2.539e-04
Time for diagonalization                   ...    0.003 sec
Threshold for overlap eigenvalues          ... 1.000e-07
Number of eigenvalues below threshold      ... 0
Time for construction of square roots      ...    0.004 sec
Total time needed                          ...    0.024 sec

-------------------
DFT GRID GENERATION
-------------------

General Integration Accuracy     IntAcc      ... 4.388
Radial Grid Type                 RadialGrid  ... OptM3 with GC (2021)
Angular Grid (max. ang.)         AngularGrid ... 4 (Lebedev-302)
Angular grid pruning method      GridPruning ... 4 (adaptive)
Weight generation scheme         WeightScheme... mBecke (2022)
Basis function cutoff            BFCut       ... 1.0000e-11
Integration weight cutoff        WCut        ... 1.0000e-14
Partially contracted basis set               ... off
Rotationally invariant grid construction     ... off
Angular grids for H and He will be reduced by one unit

Total number of grid points                  ...    92079
Total number of batches                      ...     1450
Average number of points per batch           ...       63
Average number of grid points per atom       ...     4846

--------------------
COSX GRID GENERATION
--------------------

GRIDX 1
-------
General Integration Accuracy     IntAcc      ... 3.816
Radial Grid Type                 RadialGrid  ... OptM3 with GC (2021)
Angular Grid (max. ang.)         AngularGrid ... 1 (Lebedev-50)
Angular grid pruning method      GridPruning ... 4 (adaptive)
Weight generation scheme         WeightScheme... mBecke (2022)
Basis function cutoff            BFCut       ... 1.0000e-11
Integration weight cutoff        WCut        ... 1.0000e-14
Partially contracted basis set               ... on
Rotationally invariant grid construction     ... off
Angular grids for H and He will be reduced by one unit

Total number of grid points                  ...    11743
Total number of batches                      ...      102
Average number of points per batch           ...      115
Average number of grid points per atom       ...      618
UseSFitting                                  ... on

GRIDX 2
-------
General Integration Accuracy     IntAcc      ... 4.020
Radial Grid Type                 RadialGrid  ... OptM3 with GC (2021)
Angular Grid (max. ang.)         AngularGrid ... 2 (Lebedev-110)
Angular grid pruning method      GridPruning ... 4 (adaptive)
Weight generation scheme         WeightScheme... mBecke (2022)
Basis function cutoff            BFCut       ... 1.0000e-11
Integration weight cutoff        WCut        ... 1.0000e-14
Partially contracted basis set               ... on
Rotationally invariant grid construction     ... off
Angular grids for H and He will be reduced by one unit

Total number of grid points                  ...    25885
Total number of batches                      ...      210
Average number of points per batch           ...      123
Average number of grid points per atom       ...     1362
UseSFitting                                  ... on

GRIDX 3
-------
General Integration Accuracy     IntAcc      ... 4.338
Radial Grid Type                 RadialGrid  ... OptM3 with GC (2021)
Angular Grid (max. ang.)         AngularGrid ... 3 (Lebedev-194)
Angular grid pruning method      GridPruning ... 4 (adaptive)
Weight generation scheme         WeightScheme... mBecke (2022)
Basis function cutoff            BFCut       ... 1.0000e-11
Integration weight cutoff        WCut        ... 1.0000e-14
Partially contracted basis set               ... on
Rotationally invariant grid construction     ... off
Angular grids for H and He will be reduced by one unit

Total number of grid points                  ...    56858
Total number of batches                      ...      452
Average number of points per batch           ...      125
Average number of grid points per atom       ...     2993
UseSFitting                                  ... on
Initializing property integral containers    ... done (  0.0 sec)

SHARK setup successfully completed in   1.0 seconds

Maximum memory used throughout the entire STARTUP-calculation: 23.6 MB


           ************************************************************
           *        Program running with 20 parallel MPI-processes    *
           *              working on a common directory               *
           ************************************************************
-------------------------------------------------------------------------------
                                 ORCA GUESS
                   Start orbitals & Density for SCF / CASSCF
-------------------------------------------------------------------------------

------------
SCF SETTINGS
------------
Hamiltonian:
 Density Functional     Method          .... DFT(GTOs)
 Exchange Functional    Exchange        .... B88
   X-Alpha parameter    XAlpha          ....  0.666667
   Becke's b parameter  XBeta           ....  0.004200
 Correlation Functional Correlation     .... LYP
 LDA part of GGA corr.  LDAOpt          .... VWN-5
 Gradients option       PostSCFGGA      .... off
 Hybrid DFT is turned on
   Fraction HF Exchange ScalHFX         ....  0.200000
   Scaling of DF-GGA-X  ScalDFX         ....  0.720000
   Scaling of DF-GGA-C  ScalDFC         ....  0.810000
   Scaling of DF-LDA-C  ScalLDAC        ....  1.000000
   Perturbative correction              ....  0.000000
   NL short-range parameter             ....  4.800000
 RI-approximation to the Coulomb term is turned on
   Number of AuxJ basis functions       .... 627
   RIJ-COSX (HFX calculated with COS-X)).... on


General Settings:
 Integral files         IntName         .... /home/ys/Research/PSID_server_room/orca/4nitroaniline_water_3/4nitroaniline_water_3
 Hartree-Fock type      HFTyp           .... RHF
 Total Charge           Charge          ....    0
 Multiplicity           Mult            ....    1
 Number of Electrons    NEL             ....   82
 Basis Dimension        Dim             ....  194
 Nuclear Repulsion      ENuc            ....    591.0163212987 Eh

Convergence Acceleration:
 AO-DIIS                CNVDIIS         .... on
   Start iteration      DIISMaxIt       ....    12
   Startup error        DIISStart       ....  0.200000
   # of expansion vecs  DIISMaxEq       ....     5
   Bias factor          DIISBfac        ....   1.050
   Max. coefficient     DIISMaxC        ....  10.000
 MO-DIIS                CNVKDIIS        .... off
 Trust-Rad. Augm. Hess. CNVTRAH         .... auto
   Auto Start mean grad. ratio tolernc. ....  1.125000
   Auto Start start iteration           ....     1
   Auto Start num. interpolation iter.  ....    10
   Max. Number of Micro iterations      ....    24
   Max. Number of Macro iterations      .... Maxiter - #DIIS iter
   Number of Davidson start vectors     ....     2
   Converg. threshold    (grad. norm)   ....   1.000e-05
   Grad. Scal. Fac. for Micro threshold ....   0.100
   Minimum threshold for Micro iter.    ....   1.000e-02
   NR start threshold (gradient norm)   ....   1.000e-04
   Initial trust radius                 ....   0.400
   Minimum AH scaling param. (alpha)    ....   1.000
   Maximum AH scaling param. (alpha)    .... 1000.000
   Quad. conv. algorithm                .... NR
   White noise on init. David. guess    .... on
   Maximum white noise                  ....   0.010
   Pseudo random numbers                .... off
   Inactive MOs                         .... canonical
   Orbital update algorithm             .... Taylor
   Preconditioner                       .... Diag
   Full preconditioner red. dimension   ....   250
 SOSCF                  CNVSOSCF        .... on
   Start iteration      SOSCFMaxIt      ....   150
   Startup grad/error   SOSCFStart      ....  0.003300
   Hessian update       SOSCFHessUp     .... L-BFGS
 Level Shifting         CNVShift        .... on
   Level shift para.    LevelShift      ....    0.2500
   Turn off err/grad.   ShiftErr        ....    0.0010
 Zerner damping         CNVZerner       .... off
 Static damping         CNVDamp         .... on
   Fraction old density DampFac         ....    0.7000
   Max. Damping (<1)    DampMax         ....    0.9800
   Min. Damping (>=0)   DampMin         ....    0.0000
   Turn off err/grad.   DampErr         ....    0.1000

SCF Procedure:
 Maximum # iterations   MaxIter         ....   125
 SCF integral mode      SCFMode         .... Direct
   Integral package                     .... SHARK and LIBINT hybrid scheme
 Reset frequency        DirectResetFreq ....    20
 Integral Threshold     Thresh          ....  2.500e-11 Eh
 Primitive CutOff       TCut            ....  2.500e-12 Eh

Convergence Tolerance:
 Convergence Check Mode ConvCheckMode   .... Total+1el-Energy
 Convergence forced     ConvForced      .... 0
 Energy Change          TolE            ....  1.000e-08 Eh
 1-El. energy change                    ....  1.000e-05 Eh
 Orbital Gradient       TolG            ....  1.000e-05
 Orbital Rotation angle TolX            ....  1.000e-05
 DIIS Error             TolErr          ....  5.000e-07

---------------------
INITIAL GUESS: MOREAD
---------------------
Guess MOs are being read from file: /home/ys/Research/PSID_server_room/orca/4nitroaniline_water_3/4nitroaniline_water_3.ges
Input Geometry matches current geometry (good)
Input basis set matches current basis set (good)
Occupation numbers will be reassigned to an Aufbau configuration
MOs were renormalized
MOs were reorthogonalized (Cholesky)
                      ------------------
                      INITIAL GUESS DONE (   0.0 sec)
                      ------------------
             **** ENERGY FILE WAS UPDATED (/home/ys/Research/PSID_server_room/orca/4nitroaniline_water_3/4nitroaniline_water_3.en.tmp) ****
Finished Guess after   0.6 sec
Maximum memory used throughout the entire GUESS-calculation: 10.5 MB


           ************************************************************
           *        Program running with 20 parallel MPI-processes    *
           *              working on a common directory               *
           ************************************************************

-------------------------------------------------------------------------------------------
                                      ORCA LEAN-SCF
                              memory conserving SCF solver
-------------------------------------------------------------------------------------------

----------------------------------------D-I-I-S--------------------------------------------
Iteration    Energy (Eh)           Delta-E    RMSDP     MaxDP     DIISErr   Damp  Time(sec)
-------------------------------------------------------------------------------------------
               ***  Starting incremental Fock matrix formation  ***
                              *** Initializing SOSCF ***
---------------------------------------S-O-S-C-F--------------------------------------
Iteration    Energy (Eh)           Delta-E    RMSDP     MaxDP     MaxGrad    Time(sec)
--------------------------------------------------------------------------------------
    1    -567.8167031303762542     0.00e+00  1.43e-08  4.87e-07  2.91e-08     0.5
               *** Restarting incremental Fock matrix formation ***
    2    -567.8167031303785279    -2.27e-12  1.72e-08  5.72e-07  9.64e-08     0.4
                  *** Gradient check signals convergence ***

               *****************************************************
               *                     SUCCESS                       *
               *           SCF CONVERGED AFTER   2 CYCLES          *
               *****************************************************

Recomputing exchange energy using gridx3       ... done (    0.459 sec)
Old exchange energy                            :    -14.333218892 Eh
New exchange energy                            :    -14.333220476 Eh
Exchange energy change after final integration :     -0.000001584 Eh
Total energy after final integration           :   -567.816704714 Eh
             **** ENERGY FILE WAS UPDATED (/home/ys/Research/PSID_server_room/orca/4nitroaniline_water_3/4nitroaniline_water_3.en.tmp) ****

----------------
TOTAL SCF ENERGY
----------------

Total Energy       :       -567.81670471443181 Eh          -15451.07805 eV

Components:
Nuclear Repulsion  :        591.01632129866857 Eh           16082.37171 eV
Electronic Energy  :      -1158.83302442904710 Eh          -31533.44972 eV
One Electron Energy:      -1945.39701270798219 Eh          -52936.94398 eV
Two Electron Energy:        786.56398827893508 Eh           21403.49425 eV

Virial components:
Potential Energy   :      -1130.95496712253907 Eh          -30774.84922 eV
Kinetic Energy     :        563.13826240810727 Eh           15323.77117 eV
Virial Ratio       :          2.00830780399527

DFT components:
N(Alpha)           :       40.999984756287 electrons
N(Beta)            :       40.999984756287 electrons
N(Total)           :       81.999969512573 electrons
E(X)               :      -57.074439496842 Eh       
E(C)               :       -3.340662084140 Eh       
E(XC)              :      -60.415101580983 Eh       

---------------
SCF CONVERGENCE
---------------

  Last Energy change         ...    2.2737e-12  Tolerance :   1.0000e-08
  Last MAX-Density change    ...    5.7217e-07  Tolerance :   1.0000e-07
  Last RMS-Density change    ...    1.7177e-08  Tolerance :   5.0000e-09
  Last DIIS Error            ...    3.8593e-07  Tolerance :   5.0000e-07
  Last Orbital Gradient      ...    9.6424e-08  Tolerance :   1.0000e-05
  Last Orbital Rotation      ...    1.4034e-07  Tolerance :   1.0000e-05


----------------
ORBITAL ENERGIES
----------------

  NO   OCC          E(Eh)            E(eV) 
   0   2.0000     -19.153545      -521.1945 
   1   2.0000     -19.153502      -521.1933 
   2   2.0000     -19.107835      -519.9506 
   3   2.0000     -14.552008      -395.9803 
   4   2.0000     -14.377166      -391.2226 
   5   2.0000     -10.265140      -279.3287 
   6   2.0000     -10.241799      -278.6935 
   7   2.0000     -10.221877      -278.1514 
   8   2.0000     -10.220661      -278.1183 
   9   2.0000     -10.216854      -278.0147 
  10   2.0000     -10.213259      -277.9169 
  11   2.0000      -1.214094       -33.0372 
  12   2.0000      -1.039769       -28.2936 
  13   2.0000      -0.969429       -26.3795 
  14   2.0000      -0.948731       -25.8163 
  15   2.0000      -0.875624       -23.8270 
  16   2.0000      -0.789362       -21.4796 
  17   2.0000      -0.770873       -20.9765 
  18   2.0000      -0.688824       -18.7439 
  19   2.0000      -0.644029       -17.5249 
  20   2.0000      -0.596470       -16.2308 
  21   2.0000      -0.560136       -15.2421 
  22   2.0000      -0.550506       -14.9800 
  23   2.0000      -0.534708       -14.5501 
  24   2.0000      -0.533803       -14.5255 
  25   2.0000      -0.502207       -13.6658 
  26   2.0000      -0.499603       -13.5949 
  27   2.0000      -0.467755       -12.7282 
  28   2.0000      -0.464891       -12.6503 
  29   2.0000      -0.451275       -12.2798 
  30   2.0000      -0.430342       -11.7102 
  31   2.0000      -0.418116       -11.3775 
  32   2.0000      -0.375683       -10.2228 
  33   2.0000      -0.364896        -9.9293 
  34   2.0000      -0.341533        -9.2936 
  35   2.0000      -0.306038        -8.3277 
  36   2.0000      -0.304032        -8.2731 
  37   2.0000      -0.288894        -7.8612 
  38   2.0000      -0.286849        -7.8056 
  39   2.0000      -0.280063        -7.6209 
  40   2.0000      -0.248940        -6.7740 
  41   0.0000      -0.082394        -2.2421 
  42   0.0000      -0.036461        -0.9922 
  43   0.0000       0.002649         0.0721 
  44   0.0000       0.026946         0.7332 
  45   0.0000       0.059419         1.6169 
  46   0.0000       0.067277         1.8307 
  47   0.0000       0.082221         2.2373 
  48   0.0000       0.111782         3.0417 
  49   0.0000       0.128230         3.4893 
  50   0.0000       0.136470         3.7135 
  51   0.0000       0.152635         4.1534 
*Only the first 10 virtual orbitals were printed.

                    ********************************
                    * MULLIKEN POPULATION ANALYSIS *
                    ********************************

-----------------------
MULLIKEN ATOMIC CHARGES
-----------------------
   0 O :   -0.247950
   1 O :   -0.249432
   2 N :    0.234552
   3 N :   -0.096071
   4 C :    0.173439
   5 C :    0.072302
   6 C :   -0.022974
   7 C :   -0.020714
   8 C :   -0.040116
   9 C :   -0.013947
  10 H :    0.009961
  11 H :    0.008114
  12 H :   -0.017027
  13 H :   -0.026086
  14 H :    0.139634
  15 H :    0.119806
  16 O :   -0.306623
  17 H :    0.151302
  18 H :    0.131831
Sum of atomic charges:    0.0000000

--------------------------------
MULLIKEN REDUCED ORBITAL CHARGES
--------------------------------
  0 O s       :     3.857589  s :     3.857589
      pz      :     1.395833  p :     4.368243
      px      :     1.730598
      py      :     1.241812
      dz2     :     0.003100  d :     0.022118
      dxz     :     0.001646
      dyz     :     0.005985
      dx2y2   :     0.005673
      dxy     :     0.005715

  1 O s       :     3.857325  s :     3.857325
      pz      :     1.438236  p :     4.370014
      px      :     1.619869
      py      :     1.311909
      dz2     :     0.002827  d :     0.022092
      dxz     :     0.002478
      dyz     :     0.004503
      dx2y2   :     0.004991
      dxy     :     0.007293

  2 N s       :     3.293782  s :     3.293782
      pz      :     1.168219  p :     3.356018
      px      :     1.138854
      py      :     1.048945
      dz2     :     0.009655  d :     0.115649
      dxz     :     0.010047
      dyz     :     0.024539
      dx2y2   :     0.040190
      dxy     :     0.031218

  3 N s       :     3.329120  s :     3.329120
      pz      :     1.602764  p :     3.749900
      px      :     1.100478
      py      :     1.046657
      dz2     :     0.001297  d :     0.017051
      dxz     :     0.003020
      dyz     :     0.003338
      dx2y2   :     0.004941
      dxy     :     0.004454

  4 C s       :     2.998894  s :     2.998894
      pz      :     1.078826  p :     2.779779
      px      :     0.815947
      py      :     0.885007
      dz2     :     0.005148  d :     0.047888
      dxz     :     0.005688
      dyz     :     0.006673
      dx2y2   :     0.019114
      dxy     :     0.011265

  5 C s       :     2.978493  s :     2.978493
      pz      :     0.956870  p :     2.888310
      px      :     0.893774
      py      :     1.037665
      dz2     :     0.005538  d :     0.060895
      dxz     :     0.015412
      dyz     :     0.006475
      dx2y2   :     0.018629
      dxy     :     0.014841

  6 C s       :     3.283227  s :     3.283227
      pz      :     0.919712  p :     2.704663
      px      :     0.894607
      py      :     0.890344
      dz2     :     0.002810  d :     0.035084
      dxz     :     0.007427
      dyz     :     0.003921
      dx2y2   :     0.008975
      dxy     :     0.011951

  7 C s       :     3.279824  s :     3.279824
      pz      :     0.931511  p :     2.705793
      px      :     0.857864
      py      :     0.916418
      dz2     :     0.003545  d :     0.035098
      dxz     :     0.006526
      dyz     :     0.004294
      dx2y2   :     0.009105
      dxy     :     0.011628

  8 C s       :     3.256009  s :     3.256009
      pz      :     1.016067  p :     2.751707
      px      :     0.859103
      py      :     0.876537
      dz2     :     0.003015  d :     0.032400
      dxz     :     0.005518
      dyz     :     0.003658
      dx2y2   :     0.008893
      dxy     :     0.011316

  9 C s       :     3.228132  s :     3.228132
      pz      :     1.025078  p :     2.753203
      px      :     0.880150
      py      :     0.847975
      dz2     :     0.002698  d :     0.032612
      dxz     :     0.005827
      dyz     :     0.003436
      dx2y2   :     0.008989
      dxy     :     0.011663

 10 H s       :     0.966419  s :     0.966419
      pz      :     0.005308  p :     0.023620
      px      :     0.006435
      py      :     0.011877

 11 H s       :     0.968192  s :     0.968192
      pz      :     0.004481  p :     0.023694
      px      :     0.008679
      py      :     0.010534

 12 H s       :     0.993795  s :     0.993795
      pz      :     0.005605  p :     0.023232
      px      :     0.007223
      py      :     0.010404

 13 H s       :     1.003022  s :     1.003022
      pz      :     0.006096  p :     0.023063
      px      :     0.005048
      py      :     0.011919

 14 H s       :     0.815397  s :     0.815397
      pz      :     0.013253  p :     0.044969
      px      :     0.011965
      py      :     0.019751

 15 H s       :     0.835518  s :     0.835518
      pz      :     0.014620  p :     0.044675
      px      :     0.010179
      py      :     0.019877

 16 O s       :     3.673526  s :     3.673526
      pz      :     1.403982  p :     4.622563
      px      :     1.470466
      py      :     1.748115
      dz2     :     0.002174  d :     0.010534
      dxz     :     0.000934
      dyz     :     0.003005
      dx2y2   :     0.002384
      dxy     :     0.002037

 17 H s       :     0.778289  s :     0.778289
      pz      :     0.020106  p :     0.070409
      px      :     0.030845
      py      :     0.019457

 18 H s       :     0.795204  s :     0.795204
      pz      :     0.034648  p :     0.072965
      px      :     0.016394
      py      :     0.021924



                     *******************************
                     * LOEWDIN POPULATION ANALYSIS *
                     *******************************

----------------------
LOEWDIN ATOMIC CHARGES
----------------------
   0 O :   -0.213134
   1 O :   -0.214634
   2 N :    0.276456
   3 N :   -0.007041
   4 C :   -0.049242
   5 C :    0.030766
   6 C :    0.008547
   7 C :    0.009235
   8 C :   -0.053211
   9 C :   -0.054759
  10 H :    0.043211
  11 H :    0.042520
  12 H :    0.030269
  13 H :    0.029125
  14 H :    0.084346
  15 H :    0.079271
  16 O :   -0.153045
  17 H :    0.071956
  18 H :    0.039365

-------------------------------
LOEWDIN REDUCED ORBITAL CHARGES
-------------------------------
  0 O s       :     3.620118  s :     3.620118
      pz      :     1.421278  p :     4.550546
      px      :     1.753776
      py      :     1.375491
      dz2     :     0.005674  d :     0.042470
      dxz     :     0.002744
      dyz     :     0.010824
      dx2y2   :     0.011025
      dxy     :     0.012203

  1 O s       :     3.620168  s :     3.620168
      pz      :     1.453177  p :     4.552040
      px      :     1.671265
      py      :     1.427599
      dz2     :     0.006082  d :     0.042425
      dxz     :     0.003708
      dyz     :     0.007291
      dx2y2   :     0.008357
      dxy     :     0.016987

  2 N s       :     3.050084  s :     3.050084
      pz      :     1.128687  p :     3.430816
      px      :     1.177408
      py      :     1.124720
      dz2     :     0.019033  d :     0.242645
      dxz     :     0.018488
      dyz     :     0.047459
      dx2y2   :     0.088142
      dxy     :     0.069523

  3 N s       :     3.060231  s :     3.060231
      pz      :     1.563620  p :     3.903679
      px      :     1.180434
      py      :     1.159625
      dz2     :     0.002652  d :     0.043131
      dxz     :     0.005470
      dyz     :     0.007575
      dx2y2   :     0.014164
      dxy     :     0.013270

  4 C s       :     2.859978  s :     2.859978
      pz      :     1.075736  p :     3.067271
      px      :     0.900477
      py      :     1.091057
      dz2     :     0.011735  d :     0.121993
      dxz     :     0.012576
      dyz     :     0.015102
      dx2y2   :     0.049879
      dxy     :     0.032701

  5 C s       :     2.842259  s :     2.842259
      pz      :     0.943145  p :     2.983022
      px      :     0.955988
      py      :     1.083889
      dz2     :     0.012184  d :     0.143953
      dxz     :     0.031928
      dyz     :     0.014395
      dx2y2   :     0.047857
      dxy     :     0.037589

  6 C s       :     2.863029  s :     2.863029
      pz      :     0.937609  p :     3.037186
      px      :     1.061667
      py      :     1.037911
      dz2     :     0.006518  d :     0.091238
      dxz     :     0.016632
      dyz     :     0.008438
      dx2y2   :     0.026507
      dxy     :     0.033143

  7 C s       :     2.862788  s :     2.862788
      pz      :     0.936556  p :     3.036864
      px      :     1.060694
      py      :     1.039614
      dz2     :     0.008037  d :     0.091112
      dxz     :     0.014653
      dyz     :     0.009612
      dx2y2   :     0.026702
      dxy     :     0.032108

  8 C s       :     2.860463  s :     2.860463
      pz      :     1.020439  p :     3.106126
      px      :     1.053793
      py      :     1.031893
      dz2     :     0.006941  d :     0.086622
      dxz     :     0.012655
      dyz     :     0.008259
      dx2y2   :     0.026557
      dxy     :     0.032210

  9 C s       :     2.858094  s :     2.858094
      pz      :     1.030404  p :     3.109511
      px      :     1.051479
      py      :     1.027629
      dz2     :     0.006341  d :     0.087154
      dxz     :     0.013040
      dyz     :     0.007421
      dx2y2   :     0.027070
      dxy     :     0.033282

 10 H s       :     0.885222  s :     0.885222
      pz      :     0.016262  p :     0.071567
      px      :     0.019893
      py      :     0.035412

 11 H s       :     0.885882  s :     0.885882
      pz      :     0.013792  p :     0.071599
      px      :     0.026120
      py      :     0.031687

 12 H s       :     0.899672  s :     0.899672
      pz      :     0.017044  p :     0.070060
      px      :     0.021556
      py      :     0.031460

 13 H s       :     0.902870  s :     0.902870
      pz      :     0.018341  p :     0.068005
      px      :     0.015139
      py      :     0.034525

 14 H s       :     0.793608  s :     0.793608
      pz      :     0.040666  p :     0.122046
      px      :     0.030173
      py      :     0.051208

 15 H s       :     0.800471  s :     0.800471
      pz      :     0.045338  p :     0.120258
      px      :     0.025091
      py      :     0.049829

 16 O s       :     3.430306  s :     3.430306
      pz      :     1.439132  p :     4.703498
      px      :     1.518203
      py      :     1.746163
      dz2     :     0.004536  d :     0.019242
      dxz     :     0.002112
      dyz     :     0.005812
      dx2y2   :     0.003881
      dxy     :     0.002901

 17 H s       :     0.751016  s :     0.751016
      pz      :     0.042608  p :     0.177028
      px      :     0.081260
      py      :     0.053160

 18 H s       :     0.766616  s :     0.766616
      pz      :     0.092207  p :     0.194019
      px      :     0.037005
      py      :     0.064807



                      *****************************
                      * MAYER POPULATION ANALYSIS *
                      *****************************

  NA   - Mulliken gross atomic population
  ZA   - Total nuclear charge
  QA   - Mulliken gross atomic charge
  VA   - Mayer's total valence
  BVA  - Mayer's bonded valence
  FA   - Mayer's free valence

  ATOM       NA         ZA         QA         VA         BVA        FA
  0 O      8.2480     8.0000    -0.2480     1.9566     1.9566     0.0000
  1 O      8.2494     8.0000    -0.2494     1.9557     1.9557     0.0000
  2 N      6.7654     7.0000     0.2346     3.9832     3.9832     0.0000
  3 N      7.0961     7.0000    -0.0961     3.2137     3.2137     0.0000
  4 C      5.8266     6.0000     0.1734     3.7556     3.7556     0.0000
  5 C      5.9277     6.0000     0.0723     3.9735     3.9735     0.0000
  6 C      6.0230     6.0000    -0.0230     3.8419     3.8419     0.0000
  7 C      6.0207     6.0000    -0.0207     3.8521     3.8521     0.0000
  8 C      6.0401     6.0000    -0.0401     3.8056     3.8056     0.0000
  9 C      6.0139     6.0000    -0.0139     3.7668     3.7668     0.0000
 10 H      0.9900     1.0000     0.0100     1.0183     1.0183     0.0000
 11 H      0.9919     1.0000     0.0081     1.0186     1.0186     0.0000
 12 H      1.0170     1.0000    -0.0170     1.0242     1.0242     0.0000
 13 H      1.0261     1.0000    -0.0261     0.9894     0.9894    -0.0000
 14 H      0.8604     1.0000     0.1396     0.9883     0.9883    -0.0000
 15 H      0.8802     1.0000     0.1198     0.9991     0.9991     0.0000
 16 O      8.3066     8.0000    -0.3066     2.0582     2.0582    -0.0000
 17 H      0.8487     1.0000     0.1513     1.0159     1.0159     0.0000
 18 H      0.8682     1.0000     0.1318     1.0826     1.0826    -0.0000

  Mayer bond orders larger than 0.100000
B(  0-O ,  1-O ) :   0.2726 B(  0-O ,  2-N ) :   1.5404 B(  1-O ,  2-N ) :   1.5394 
B(  2-N ,  4-C ) :   0.8753 B(  3-N ,  5-C ) :   1.1766 B(  3-N , 14-H ) :   0.9412 
B(  3-N , 15-H ) :   0.9450 B(  4-C ,  6-C ) :   1.3506 B(  4-C ,  7-C ) :   1.3624 
B(  5-C ,  8-C ) :   1.3112 B(  5-C ,  9-C ) :   1.3178 B(  6-C ,  8-C ) :   1.3715 
B(  6-C , 10-H ) :   0.9841 B(  7-C ,  9-C ) :   1.3675 B(  7-C , 11-H ) :   0.9814 
B(  8-C , 12-H ) :   0.9861 B(  9-C , 13-H ) :   0.9869 B( 16-O , 17-H ) :   1.0036 
B( 16-O , 18-H ) :   0.9755 

Environment variable NBOEXE for nbo6.exe or nbo5.exe not set! Skipping NBO-Analysis

-------
TIMINGS
-------

Total SCF time: 0 days 0 hours 0 min 2 sec 

Total time                  ....       2.040 sec
Sum of individual times     ....       1.986 sec  ( 97.4%)

SCF preparation             ....       0.622 sec  ( 30.5%)
Fock matrix formation       ....       1.242 sec  ( 60.9%)
  Startup                   ....       0.018 sec  (  1.5% of F)
  Split-RI-J                ....       0.070 sec  (  5.6% of F)
  Chain of spheres X        ....       0.960 sec  ( 77.2% of F)
  XC integration            ....       0.170 sec  ( 13.7% of F)
    Basis function eval.    ....       0.031 sec  ( 18.2% of XC)
    Density eval.           ....       0.020 sec  ( 11.6% of XC)
    XC-Functional eval.     ....       0.008 sec  (  4.9% of XC)
    XC-Potential eval.      ....       0.031 sec  ( 18.3% of XC)
Diagonalization             ....       0.000 sec  (  0.0%)
Density matrix formation    ....       0.021 sec  (  1.0%)
Total Energy calculation    ....       0.014 sec  (  0.7%)
Population analysis         ....       0.018 sec  (  0.9%)
Orbital Transformation      ....       0.014 sec  (  0.7%)
Orbital Orthonormalization  ....       0.000 sec  (  0.0%)
DIIS solution               ....       0.024 sec  (  1.2%)
SOSCF solution              ....       0.031 sec  (  1.5%)
Finished LeanSCF after   2.1 sec

Maximum memory used throughout the entire LEANSCF-calculation: 20.2 MB

-------------------------   --------------------
FINAL SINGLE POINT ENERGY      -567.816704714432
-------------------------   --------------------



           ************************************************************
           *        Program running with 20 parallel MPI-processes    *
           *              working on a common directory               *
           ************************************************************

------------------------------------------------------------------------------
                              ORCA PROPERTY CALCULATIONS
------------------------------------------------------------------------------

GBWName                                 ... /home/ys/Research/PSID_server_room/orca/4nitroaniline_water_3/4nitroaniline_water_3.gbw
Number of atoms                         ...     19
Number of basis functions               ...    194
Max core memory                         ...   5000 MB

Electric properties:
Dipole moment                           ... YES
Quadrupole moment                       ...  NO
Static polarizability (Dipole/Dipole)   ...  NO
Static polarizability (Dipole/Quad.)    ...  NO
Static polarizability (Quad./Quad.)     ...  NO
Static polarizability (Velocity)        ...  NO

Atomic electric properties:
Dipole moment                           ...  NO
Quadrupole moment                       ...  NO
Static polarizability                   ...  NO

Choice of electric origin               ... Center of mass
Position of electric origin             ...   -10.170844    12.816898     0.385359

General magnetic properties:
Magnetizability                         ...  NO

EPR properties:
g-Tensor (aka g-matrix)                 ...  NO
Zero-Field splitting spin-orbit         ...  NO
Zero-field splitting spin-spin          ...  NO
Hyperfine couplings                     ...  NO (   0 nuclei)
Quadrupole couplings                    ...  NO (   0 nuclei)
Contact density                         ...  NO (   0 nuclei)

NMR properties:
Chemical shifts                         ...  NO (   0 nuclei)
Spin-rotation constants                 ...  NO (   0 nuclei)
Spin-spin couplings                     ...  NO (   0 nuclei,    0 pairs)

Choice of magnetic origin               ... GIAO
Position of magnetic origin             ...     0.000000     0.000000     0.000000

Properties with geometric perturbations:
SCF Hessian                             ...  NO
IR spectrum                             ...  NO
VCD spectrum                            ...  NO
X-ray spectroscopy properties:
SCF XES/XAS/RIXS spectra                ...  NO


-------------
DIPOLE MOMENT
-------------

Method             : SCF
Type of density    : Electron Density
Multiplicity       :   1
Irrep              :   0
Energy             :  -567.8167047144318076 Eh
Relativity type    : 
Basis              : AO
                                X                 Y                 Z
Electronic contribution:     11.454351624      -0.178273786      -1.469523754
Nuclear contribution   :    -13.300152428      -0.446979068       0.354794338
                        -----------------------------------------
Total Dipole Moment    :     -1.845800803      -0.625252854      -1.114729416
                        -----------------------------------------
Magnitude (a.u.)       :      2.245115456
Magnitude (Debye)      :      5.706629975



--------------------
Rotational spectrum 
--------------------
 
Rotational constants in cm-1:             0.073728             0.018808             0.016331 
Rotational constants in MHz :          2210.315922           563.838520           489.598221 

Dipole components along the rotational axes: 
x,y,z [a.u.] :     1.693188    -1.364172    -0.559188 
x,y,z [Debye]:     4.303742    -3.467451    -1.421344 

 

Dipole moment calculation done in   0.0 sec 

Maximum memory used throughout the entire PROP-calculation: 9.0 MB

--------------------------------
SUGGESTED CITATIONS FOR THIS RUN
--------------------------------

Below you find a list of papers that are relevant to this ORCA run
We neither can nor want to force you to cite these papers, but we appreciate if you do
You receive ORCA, which is the product of decades of hard work by many enthusiastic individuals, for free
The only thing we kindly ask in return is that you cite our papers,
We deeply appreciate it, if you show your appreciation for ORCA by not just citing the generic ORCA reference.

Please note that relegating all ORCA citations to the supporting information does *not* help us.
SI sections are not indexed - citations you put there will not count into any citation statistics
But we need these citations in order to attract the funding resources that allow us to do what we are doing

Therefore, if you are a happy ORCA user, please consider citing a few of the papers listed below in the main body of your paper

In addition to the list printed below, the program has created the file /home/ys/Research/PSID_server_room/orca/4nitroaniline_water_3/4nitroaniline_water_3.bibtex that contains the list in bibtex format
You can import this file easily into all common literature databanks and citation aid programs


List of essential papers. We consider these as the minimum necessary citations

  1. Neese,F.
     Software update: the ORCA program system, version 5.0
     WIRES Comput. Molec. Sci., 2022 12(1)e1606
     doi.org/10.1002/wcms.1606

List of papers to cite with high priority. The work reported in these papers was absolutely
necessary for this run to complete.
Our perspective: the developers of density functionals and basis sets usually get cited in chemistry papers
Good! But without the algorithms to do something with them, the functionals or basis sets would not do anything.
Hence, in our opinion, the algorithm design and method developments papers are equally worthy of getting cited

  1. Neese,F.
     An improvement of the resolution of the identity approximation for the formation of the Coulomb matrix
     J. Comp. Chem., 2003 24(14)1740-1747
     doi.org/10.1002/jcc.10318
  2. Neese,F.; Wennmohs,F.; Hansen,A.; Becker,U.
     Efficient, approximate and parallel Hartree-Fock and hybrid DFT calculations. A 'chain-of-spheres' algorithm for the Hartree-Fock exchange
     Chem. Phys., 2009 356(1-3)98-109
     doi.org/10.1016/j.chemphys.2008.10.036
  3. Helmich-Paris,B.; de Souza,B.; Neese,F.; Izsák,R.
     An improved chain of spheres for exchange algorithm
     J. Chem. Phys., 2021 155 104109
     doi.org/doi: 10.1063/5.0058766.
  4. Neese,F.
     The SHARK Integral Generation and Digestion System
     J. Comp. Chem., 2022  1-16
     doi.org/10.1002/jcc.26942

List of suggested additional citations. These are papers that are important in the 'surrounding' of 
of this run, or papers that preceded the highly important papers. If you like your results we are grateful for a citation.

  1. Izsak,R.; Neese,F.
     An overlap fitted chain of spheres exchange method
     J. Chem. Phys., 2011 135 144105
     doi.org/10.1063/1.3646921
  2. Izsak,R.; Hansen,A.; Neese,F.
     The resolution of identity and chain of spheres approximations for the LPNO-CCSD singles Fock term
     Molec. Phys., 2012 110 2413-2417
     doi.org/10.1080/00268976.2012.687466
  3. Neese,F.
     The ORCA program system
     WIRES Comput. Molec. Sci., 2012 2(1)73-78
     doi.org/10.1002/wcms.81
  4. Izsak,R.; Neese,F.; Klopper,W.
     Robust fitting techniques in the chain of spheres approximation to the Fock exchange: The role of the complementary space
     J. Chem. Phys., 2013 139 
     doi.org/10.1063/1.4819264
  5. Neese,F.
     Software update: the ORCA program system, version 4.0
     WIRES Comput. Molec. Sci., 2018 8(1)1-6
     doi.org/10.1002/wcms.1327
  6. Neese,F.; Wennmohs,F.; Becker,U.; Riplinger,C.
     The ORCA quantum chemistry program package
     J. Chem. Phys., 2020 152 Art. No. L224108
     doi.org/10.1063/5.0004608

List of optional additional citations

  1. Neese,F.
     Approximate second-order SCF convergence for spin unrestricted wavefunctions
     Chem. Phys. Lett., 2000 325(1-3)93-98
     doi.org/10.1016/s0009-2614(00)00662-x

Timings for individual modules:

Sum of individual times          ...        5.155 sec (=   0.086 min)
Startup calculation              ...        1.619 sec (=   0.027 min)  31.4 %
SCF iterations                   ...        2.889 sec (=   0.048 min)  56.0 %
Property calculations            ...        0.646 sec (=   0.011 min)  12.5 %
                             ****ORCA TERMINATED NORMALLY****
TOTAL RUN TIME: 0 days 0 hours 0 minutes 6 seconds 143 msec
