
                                 *****************
                                 * O   R   C   A *
                                 *****************

                                            #,                                       
                                            ###                                      
                                            ####                                     
                                            #####                                    
                                            ######                                   
                                           ########,                                 
                                     ,,################,,,,,                         
                               ,,#################################,,                 
                          ,,##########################################,,             
                       ,#########################################, ''#####,          
                    ,#############################################,,   '####,        
                  ,##################################################,,,,####,       
                ,###########''''           ''''###############################       
              ,#####''   ,,,,##########,,,,          '''####'''          '####       
            ,##' ,,,,###########################,,,                        '##       
           ' ,,###''''                  '''############,,,                           
         ,,##''                                '''############,,,,        ,,,,,,###''
      ,#''                                            '''#######################'''  
     '                                                          ''''####''''         
             ,#######,   #######,   ,#######,      ##                                
            ,#'     '#,  ##    ##  ,#'     '#,    #''#        ,####,   ,####,        
            ##       ##  ##   ,#'  ##            #'  '#       #'       #'  '#        
            ##       ##  #######   ##           ,######,      #####,   #    #        
            '#,     ,#'  ##    ##  '#,     ,#' ,#      #,     #,   #   #,  ,#        
             '#######'   ##     ##  '#######'  #'      '#     '####' # '####'        



                #########################################################
                #                        -***-                          #
                #          Department of theory and spectroscopy        #
                #                                                       #
                #                      Frank Neese                      #
                #                                                       #
                #     Directorship, Architecture, Infrastructure        #
                #                    SHARK, DRIVERS                     #
                #        Core code/Algorithms in most modules           #
                #                                                       #
                #        Max Planck Institute fuer Kohlenforschung      #
                #                Kaiser Wilhelm Platz 1                 #
                #                 D-45470 Muelheim/Ruhr                 #
                #                      Germany                          #
                #                                                       #
                #                  All rights reserved                  #
                #                        -***-                          #
                #########################################################


                         Program Version 6.0.1  -  RELEASE   -


 With contributions from (in alphabetic order):
[Max-Planck-Institut fuer Kohlenforschung]                               
  Daniel Aravena         : Magnetic Suceptibility                        
  Michael Atanasov       : Ab Initio Ligand Field Theory (pilot matlab implementation)
  Alexander A. Auer      : GIAO ZORA, VPT2 properties, NMR spectrum      
  Ute Becker             : All parallelization in ORCA, NUMFREQ, NUMCALC 
  Giovanni Bistoni       : ED, misc. LED, open-shell LED, HFLD           
  Martin Brehm           : Molecular dynamics                            
  Dmytro Bykov           : pre 5.0 version of the SCF Hessian            
  Marcos Casanova-Páez   : Triplet and SCS-CIS(D). UHF-(DLPNO)-IP/EA/STEOM-CCSD. UHF-CVS-IP/STEOM-CCSD   
  Vijay G. Chilkuri      : MRCI spin determinant printing, contributions to CSF-ICE 
  Pauline Colinet        : FMM embedding                                 
  Dipayan Datta          : RHF DLPNO-CCSD density                        
  Achintya Kumar Dutta   : EOM-CC, STEOM-CC                              
  Nicolas Foglia         : Exact transition moments, OPA infrastructure, MCD improvements    
  Dmitry Ganyushin       : Spin-Orbit,Spin-Spin,Magnetic field MRCI      
  Miquel Garcia-Rates    : C-PCM and meta-GGA Hessian, CCSD/C-PCM, Gaussian charge scheme 
  Tiago L. C. Gouveia    : GS-ROHF, GS-ROCIS                             
  Yang Guo               : DLPNO-NEVPT2, F12-NEVPT2, CIM, IAO-localization        
  Andreas Hansen         : Spin unrestricted coupled pair/coupled cluster methods 
  Ingolf Harden          : AUTO-CI MPn and infrastructure                
  Benjamin Helmich-Paris : MC-RPA, TRAH-(SCF,CASSCF), AVAS, COSX integrals, SCF dyn. polar. 
  Lee Huntington         : MR-EOM, pCC                                   
  Robert Izsak           : Overlap fitted RIJCOSX, COSX-SCS-MP3, EOM     
  Riya Kayal             : Wick's Theorem for AUTO-CI, AUTO-CI UHF-CCSDT 
  Emily Kempfer          : AUTO-CI, RHF CISDT and CCSDT                  
  Christian Kollmar      : KDIIS, OOCD, Brueckner-CCSD(T), CCSD density, CASPT2, CASPT2-K, improved NEVPT2 
  Axel Koslowski         : Symmetry handling                             
  Simone Kossmann        : meta-GGA functionals, TD-DFT gradient, OOMP2, (MP2 Hessian; deprecated post 5.0) 
  Lucas Lang             : DCDCAS                                        
  Marvin Lechner         : AUTO-CI (C++ implementation), FIC-MRCC        
  Spencer Leger          : CASSCF response                               
  Dagmar Lenk            : GEPOL surface, SMD, ORCA-2-JSON               
  Dimitrios Liakos       : Extrapolation schemes; Compound Job, initial MDCI parallelization 
  Dimitrios Manganas     : Further ROCIS development; embedding schemes. LFT, Crystal Embedding 
  Dimitrios Pantazis     : SARC Basis sets                               
  Anastasios Papadopoulos: AUTO-CI, single reference methods and gradients 
  Taras Petrenko         : pre 6.0 DFT Hessian and TD-DFT gradient, (ASA, deprecated), ECA, 1-Electron XAS/XES, NRVS 
  Peter Pinski           : DLPNO-MP2, DLPNO-MP2 Gradient                 
  Christoph Reimann      : Effective Core Potentials                     
  Marius Retegan         : Local ZFS, SOC                                
  Christoph Riplinger    : Optimizer, TS searches, QM/MM, DLPNO-CCSD(T), (RO)-DLPNO pert. Triples 
  Michael Roemelt        : Original ROCIS implementation                 
  Masaaki Saitow         : Open-shell DLPNO-CCSD energy and density      
  Barbara Sandhoefer     : DKH picture change effects                    
  Kantharuban Sivalingam : CASSCF convergence/infrastructure, NEVPT2 and variants, FIC-MRCI 
  Bernardo de Souza      : ESD, SOC TD-DFT                               
  Georgi L. Stoychev     : AutoAux, RI-MP2 NMR, DLPNO-MP2 response, X2C  
  Van Anh Tran           : RI-MP2 g-tensors                              
  Willem Van den Heuvel  : Paramagnetic NMR                              
  Zikuan Wang            : NOTCH, Electric field optimization            
  Frank Wennmohs         : Technical directorship and infrastructure     
  Hang Xu                : AUTO-CI-Response properties                   
                                                                         
[FACCTs GmbH]                                                            
  Markus Bursch, Miquel Garcia-Rates, Christoph Riplinger, Bernardo de Souza, Georgi L. Stoychev 
                                                                 
  APM, Basis sets (HGBS, AHGBS, def-TZVP (Ac-Lr), def2-XVPD (La-Lu)), CI-OPT, improved COSX, DLPNO-Multilevel,           
  DOCKER, DRACO, updates on ESD, GOAT, IRC, LR-CPCM, MBIS, meta-GGA TD-DFT gradient, ML-optimized integration grids, 
  MM, NACMEs, nearIR, NEB, NEB-TS, NL-DFT gradient (VV10), 2- and 3-layer-ONIOM, interface openCOSMO-RS, QMMM,   
  Crystal-QMMM, SF, symmetry and pop. for TD-DFT, r2SCAN hybrids, SOLVATOR                                   
                                                                         
[Other institutions]                                                     
  V. Asgeirsson          : NEB                                           
  Christoph Bannwarth    : sTDA-DFT, sTD-DFT, PBEh-3c, B97-3c, D3        
  Sebastian Ehlert       : rSCAN, r2SCAN, r2SCAN-3c, D4, dhf basis sets  
  Marvin Friede          : D4 for Fr, Ra, Ac-Lr                          
  Lars Goerigk           : TD-DFT with DH, B97 family of functionals     
  Stefan Grimme          : VdW corrections, initial TS optimization, DFT functionals, gCP, sTDA/sTD-DF 
  Waldemar Hujo          : DFT-NL                                        
  H. Jonsson             : NEB                                           
  Holger Kruse           : gCP                                           
  Marcel Mueller         : wB97X-3c, vDZP basis set                      
  Hagen Neugebauer       : wr2SCAN                                       
  Tobias Risthaus        : range-separated hybrid DFT                    
  Lukas Wittmann         : regularized MP2, r2SCAN double-hybrids, wr2SCAN        
                                                                         
We gratefully acknowledge several colleagues who have allowed us to      
interface, adapt or use parts of their codes:                            
  Ed Valeev, F. Pavosevic, A. Kumar             : LibInt (2-el integral package), F12 methods 
  Garnet Chan, S. Sharma, J. Yang, R. Olivares  : DMRG                   
  Ulf Ekstrom                                   : XCFun DFT Library      
  Mihaly Kallay                                 : mrcc  (arbitrary order and MRCC methods)
  Frank Weinhold                                : gennbo (NPA and NBO analysis)           
  Simon Mueller                                 : openCOSMO-RS                            
  Christopher J. Cramer and Donald G. Truhlar   : smd solvation model                     
  S Lehtola, MJT Oliveira, MAL Marques          : LibXC Library                           
  Liviu Ungur et al                             : ANISO software                          


 Your calculation uses the libint2 library for the computation of 2-el integrals
 For citations please refer to: http://libint.valeyev.net

 Your ORCA version has been built with support for libXC version: 6.2.2
 For citations please refer to: https://libxc.gitlab.io

 This ORCA versions uses:
   CBLAS   interface :  Fast vector & matrix operations
   LAPACKE interface :  Fast linear algebra routines
   SCALAPACK package :  Parallel linear algebra routines
   Shared memory     :  Shared parallel matrices
   BLAS/LAPACK       :  OpenBLAS 0.3.27  USE64BITINT DYNAMIC_ARCH NO_AFFINITY SkylakeX SINGLE_THREADED
        Core in use  :  SkylakeX
   Copyright (c) 2011-2014, The OpenBLAS Project


NOTE: MaxCore=4000 MB was set to SCF,MP2,MDCI,CIPSI,MRCI and CIS
      => If you want to overwrite this, your respective input block should be placed after the MaxCore statement
Your calculation utilizes the atom-pairwise dispersion correction
with the Becke-Johnson damping scheme (D3BJ)


Warning: RI is on but no J-basis has been assigned. Assigning Def2/J (nothing to worry about!)
================================================================================

----- Orbital basis set information -----
Your calculation utilizes the basis: def2-SVP
   F. Weigend and R. Ahlrichs, Phys. Chem. Chem. Phys. 7, 3297 (2005).

----- AuxJ basis set information -----
Your calculation utilizes the auxiliary basis: def2/J
   F. Weigend, Phys. Chem. Chem. Phys. 8, 1057 (2006).

================================================================================
                                        WARNINGS
                       Please study these warnings very carefully!
================================================================================


WARNING: Geometry Optimization
  ===> : Switching off AutoStart
         For restart on a previous wavefunction, please use MOREAD

================================================================================
                                       INPUT FILE
================================================================================
NAME = ABN_water_2_OPT.inp
|  1> ! B3LYP def2-SVP OPT TightSCF D3BJ
|  2> 
|  3> 
|  4> %maxcore 4000
|  5> 
|  6> %pal
|  7> nprocs 28
|  8> end
|  9> 
| 10> * xyz 0 1
| 11> N        3.2365523611     -0.0000811697      0.0003770205                 
| 12> N       -3.5567856213      0.0001112525     -0.0001335237                 
| 13> C        1.8700564914     -0.0000465715      0.0001235114                 
| 14> C        1.1433832013     -1.2127873651      0.0000999708                 
| 15> C        1.1434453309      1.2127313898      0.0000776682                 
| 16> C       -0.9636585856      0.0000249446     -0.0000006350                 
| 17> C       -0.2434230529     -1.2107667599      0.0000406562                 
| 18> C       -0.2433606069      1.2107815060      0.0000225173                 
| 19> C       -2.3942814240      0.0000658885     -0.0000738086                 
| 20> H        1.6840586986     -2.1628589513      0.0001407514                 
| 21> H        1.6841700713      2.1627754851      0.0001017865                 
| 22> H       -0.7868310153     -2.1577078024      0.0000158033                 
| 23> H       -0.7867254750      2.1577470062     -0.0000166211                 
| 24> H        3.7554218632      0.8655699291     -0.0009453021                 
| 25> H        3.7553777632     -0.8657587819     -0.0009297950                 
| 26> O        3.9262573343     -0.0520222865     -2.6664826272                 
| 27> H        3.2641119192      0.0205369749     -1.9656343890                 
| 28> H        3.4466081809      0.2433642258     -3.4522997484                 
| 29> *           
| 30> 
| 31> 
| 32>                          ****END OF INPUT****
================================================================================

                       *****************************
                       * Geometry Optimization Run *
                       *****************************

Geometry optimization settings:
Update method            Update   .... BFGS
Choice of coordinates    CoordSys .... (2022) Redundant Internals
Initial Hessian          InHess   .... Almloef's Model
Max. no of cycles        MaxIter  .... 54

Convergence Tolerances:
Energy Change            TolE     ....  5.0000e-06 Eh
Max. Gradient            TolMAXG  ....  3.0000e-04 Eh/bohr
RMS Gradient             TolRMSG  ....  1.0000e-04 Eh/bohr
Max. Displacement        TolMAXD  ....  4.0000e-03 bohr
RMS Displacement         TolRMSD  ....  2.0000e-03 bohr
Strict Convergence                .... False

------------------------------------------------------------------------------
                        ORCA OPTIMIZATION COORDINATE SETUP
------------------------------------------------------------------------------

The optimization will be done in redundant internal coordinates (2022)
Making redundant internal coordinates   ...  (2022 redundants) done
Evaluating the initial hessian          ...  (Almloef) done
Evaluating the coordinates              ...  done
Calculating the B-matrix                .... done
Calculating the G-matrix                .... done
Diagonalizing the G-matrix              .... done
The first mode is                       ....   75
The number of degrees of freedom        ....   48

    -----------------------------------------------------------------
                    Redundant Internal Coordinates


    -----------------------------------------------------------------
         Definition                    Initial Value    Approx d2E/dq
    -----------------------------------------------------------------
      1. B(C   2,N   0)                  1.3665         0.610063   
      2. B(C   3,C   2)                  1.4138         0.572516   
      3. B(C   4,C   2)                  1.4138         0.572516   
      4. B(C   6,C   3)                  1.3868         0.632167   
      5. B(C   6,C   5)                  1.4088         0.583073   
      6. B(C   7,C   5)                  1.4088         0.583069   
      7. B(C   7,C   4)                  1.3868         0.632168   
      8. B(C   8,C   5)                  1.4306         0.538180   
      9. B(C   8,N   1)                  1.1625         1.290715   
     10. B(H   9,C   3)                  1.0931         0.355963   
     11. B(H  10,C   4)                  1.0931         0.355963   
     12. B(H  11,C   6)                  1.0918         0.357749   
     13. B(H  12,C   7)                  1.0918         0.357750   
     14. B(H  13,N   0)                  1.0092         0.433907   
     15. B(H  14,N   0)                  1.0092         0.433907   
     16. B(H  16,C   2)                  2.4100         0.002821   
     17. B(H  16,H  14)                  2.2106         0.001123   
     18. B(H  16,H  13)                  2.1944         0.001192   
     19. B(H  16,N   0)                  1.9663         0.012896   
     20. B(H  16,O  15)                  0.9669         0.506948   
     21. B(H  17,O  15)                  0.9669         0.507010   
     22. A(C   2,N   0,H  14)          120.9369         0.357853   
     23. A(H  14,N   0,H  16)           90.0283         0.185800   
     24. A(C   2,N   0,H  13)          120.9369         0.357853   
     25. A(C   2,N   0,H  16)           90.7924         0.210314   
     26. A(H  13,N   0,H  14)          118.1260         0.303526   
     27. A(H  13,N   0,H  16)           88.9967         0.185800   
     28. A(C   3,C   2,C   4)          118.1429         0.421842   
     29. A(N   0,C   2,C   3)          120.9286         0.423883   
     30. A(N   0,C   2,C   4)          120.9285         0.423883   
     31. A(C   4,C   2,H  16)          106.8543         0.175490   
     32. A(N   0,C   2,H  16)           54.6690         0.176021   
     33. A(C   3,C   2,H  16)          107.7360         0.175490   
     34. A(C   6,C   3,H   9)          119.7272         0.353380   
     35. A(C   2,C   3,H   9)          119.4263         0.347515   
     36. A(C   2,C   3,C   6)          120.8465         0.429393   
     37. A(C   2,C   4,H  10)          119.4262         0.347515   
     38. A(C   7,C   4,H  10)          119.7273         0.353380   
     39. A(C   2,C   4,C   7)          120.8465         0.429393   
     40. A(C   6,C   5,C   7)          118.5048         0.424606   
     41. A(C   6,C   5,C   8)          120.7478         0.418575   
     42. A(C   7,C   5,C   8)          120.7474         0.418575   
     43. A(C   3,C   6,C   5)          120.8296         0.430803   
     44. A(C   5,C   6,H  11)          119.4042         0.348881   
     45. A(C   3,C   6,H  11)          119.7661         0.353680   
     46. A(C   5,C   7,H  12)          119.4039         0.348880   
     47. A(C   4,C   7,H  12)          119.7665         0.353680   
     48. A(C   4,C   7,C   5)          120.8296         0.430803   
     49. L(N   1,C   8,C   5,C   7, 2) 180.0000         0.480270   
     50. L(N   1,C   8,C   5,C   7, 1) 179.9994         0.480270   
     51. A(N   0,H  13,H  16)           63.6262         0.134689   
     52. A(N   0,H  14,H  16)           62.8076         0.134077   
     53. A(H  16,O  15,H  17)          103.0888         0.319185   
     54. A(N   0,H  16,H  13)           27.3771         0.109616   
     55. A(H  13,H  16,O  15)          121.6369         0.136326   
     56. A(N   0,H  16,O  15)          137.1843         0.189270   
     57. A(C   2,H  16,H  14)           53.1440         0.103590   
     58. A(C   2,H  16,H  13)           53.3101         0.103788   
     59. A(N   0,H  16,C   2)           34.5385         0.120332   
     60. A(C   2,H  16,O  15)          170.6538         0.160925   
     61. A(H  13,H  16,H  14)           46.2848         0.098600   
     62. A(N   0,H  16,H  14)           27.1641         0.109340   
     63. A(H  14,H  16,O  15)          117.5118         0.135692   
     64. D(C   4,C   2,N   0,H  14)   -179.9113         0.035152   
     65. D(C   4,C   2,N   0,H  13)     -0.0981         0.035152   
     66. D(C   4,C   2,N   0,H  16)    -89.4033         0.035152   
     67. D(C   3,C   2,N   0,H  14)      0.0981         0.035152   
     68. D(C   3,C   2,N   0,H  16)     90.6061         0.035152   
     69. D(C   3,C   2,N   0,H  13)    179.9114         0.035152   
     70. D(H   9,C   3,C   2,C   4)   -179.9996         0.024421   
     71. D(C   6,C   3,C   2,N   0)    179.9905         0.024421   
     72. D(C   6,C   3,C   2,H  16)   -121.0850         0.024421   
     73. D(C   6,C   3,C   2,C   4)     -0.0003         0.024421   
     74. D(H   9,C   3,C   2,N   0)     -0.0088         0.024421   
     75. D(C   7,C   4,C   2,H  16)    121.5366         0.024421   
     76. D(C   7,C   4,C   2,N   0)   -179.9903         0.024421   
     77. D(H  10,C   4,C   2,C   3)    179.9996         0.024421   
     78. D(H  10,C   4,C   2,N   0)      0.0088         0.024421   
     79. D(C   7,C   4,C   2,C   3)      0.0005         0.024421   
     80. D(H  11,C   6,C   5,C   7)   -179.9995         0.023369   
     81. D(H  11,C   6,C   5,C   8)      0.0000         0.023369   
     82. D(C   3,C   6,C   5,C   8)    179.9994         0.023369   
     83. D(C   3,C   6,C   5,C   7)     -0.0001         0.023369   
     84. D(H  11,C   6,C   3,H   9)     -0.0012         0.027721   
     85. D(H  11,C   6,C   3,C   2)    179.9995         0.027721   
     86. D(C   5,C   6,C   3,H   9)    179.9994         0.027721   
     87. D(C   5,C   6,C   3,C   2)      0.0001         0.027721   
     88. D(H  12,C   7,C   5,C   6)    179.9995         0.023369   
     89. D(C   4,C   7,C   5,C   8)   -179.9992         0.023369   
     90. D(H  12,C   7,C   4,H  10)      0.0012         0.027721   
     91. D(C   5,C   7,C   4,H  10)   -179.9996         0.027721   
     92. D(H  12,C   7,C   4,C   2)   -179.9997         0.027721   
     93. D(C   4,C   7,C   5,C   6)      0.0003         0.023369   
     94. D(C   5,C   7,C   4,C   2)     -0.0005         0.027721   
     95. D(H  12,C   7,C   5,C   8)     -0.0000         0.023369   
     96. D(H  16,H  13,N   0,H  14)     89.4958         0.241373   
     97. D(H  16,H  13,N   0,C   2)    -90.3226         0.241373   
     98. D(H  16,H  14,N   0,H  13)    -88.8775         0.241373   
     99. D(H  16,H  14,N   0,C   2)     90.9409         0.241373   
    100. D(C   2,H  16,O  15,H  17)    168.7299         0.392040   
    101. D(H  13,H  16,O  15,H  17)   -136.5772         0.392040   
    102. D(N   0,H  16,O  15,H  17)   -166.1561         0.392040   
    103. D(C   2,H  16,H  14,N   0)    -37.4264         0.001514   
    104. D(O  15,H  16,H  14,N   0)    142.8084         0.001514   
    105. D(C   2,H  16,H  13,N   0)     37.3368         0.001516   
    106. D(H  14,H  16,H  13,N   0)    -33.8508         0.001516   
    107. D(O  15,H  16,H  13,N   0)   -133.1502         0.001516   
    108. D(H  13,H  16,C   2,C   3)   -145.2341         0.001505   
    109. D(H  13,H  16,C   2,N   0)    -29.4664         0.001505   
    110. D(N   0,H  16,C   2,C   4)    116.3291         0.001505   
    111. D(N   0,H  16,C   2,C   3)   -115.7677         0.001505   
    112. D(O  15,H  16,C   2,C   4)    146.9113         0.001505   
    113. D(O  15,H  16,C   2,C   3)    -85.1855         0.001505   
    114. D(O  15,H  16,C   2,N   0)     30.5822         0.001505   
    115. D(H  14,H  16,N   0,H  13)    118.1301         0.001621   
    116. D(H  14,H  16,N   0,C   2)   -120.9406         0.001621   
    117. D(H  13,H  16,H  14,N   0)     34.1294         0.001514   
    118. D(H  13,H  16,N   0,H  14)   -118.1301         0.001621   
    119. D(H  13,H  16,N   0,C   2)    120.9293         0.001621   
    120. D(O  15,H  16,N   0,H  14)    -52.0766         0.001621   
    121. D(H  14,H  16,O  15,H  17)    169.8868         0.392040   
    122. D(O  15,H  16,N   0,H  13)     66.0535         0.001621   
    123. D(O  15,H  16,N   0,C   2)   -173.0172         0.001621   
    -----------------------------------------------------------------

Number of atoms                         .... 18
Number of degrees of freedom            .... 123


         *************************************************************
         *                GEOMETRY OPTIMIZATION CYCLE   1            *
         *************************************************************
---------------------------------
CARTESIAN COORDINATES (ANGSTROEM)
---------------------------------
  N      3.236552   -0.000081    0.000377
  N     -3.556786    0.000111   -0.000134
  C      1.870056   -0.000047    0.000124
  C      1.143383   -1.212787    0.000100
  C      1.143445    1.212731    0.000078
  C     -0.963659    0.000025   -0.000001
  C     -0.243423   -1.210767    0.000041
  C     -0.243361    1.210782    0.000023
  C     -2.394281    0.000066   -0.000074
  H      1.684059   -2.162859    0.000141
  H      1.684170    2.162775    0.000102
  H     -0.786831   -2.157708    0.000016
  H     -0.786725    2.157747   -0.000017
  H      3.755422    0.865570   -0.000945
  H      3.755378   -0.865759   -0.000930
  O      3.926257   -0.052022   -2.666483
  H      3.264112    0.020537   -1.965634
  H      3.446608    0.243364   -3.452300

----------------------------
CARTESIAN COORDINATES (A.U.)
----------------------------
  NO LB      ZA    FRAG     MASS         X           Y           Z
   0 N     7.0000    0    14.007    6.116198   -0.000153    0.000712
   1 N     7.0000    0    14.007   -6.721351    0.000210   -0.000252
   2 C     6.0000    0    12.011    3.533895   -0.000088    0.000233
   3 C     6.0000    0    12.011    2.160681   -2.291836    0.000189
   4 C     6.0000    0    12.011    2.160799    2.291730    0.000147
   5 C     6.0000    0    12.011   -1.821051    0.000047   -0.000001
   6 C     6.0000    0    12.011   -0.460003   -2.288018    0.000077
   7 C     6.0000    0    12.011   -0.459885    2.288045    0.000043
   8 C     6.0000    0    12.011   -4.524536    0.000125   -0.000139
   9 H     1.0000    0     1.008    3.182410   -4.087211    0.000266
  10 H     1.0000    0     1.008    3.182620    4.087053    0.000192
  11 H     1.0000    0     1.008   -1.486895   -4.077477    0.000030
  12 H     1.0000    0     1.008   -1.486696    4.077551   -0.000031
  13 H     1.0000    0     1.008    7.096719    1.635690   -0.001786
  14 H     1.0000    0     1.008    7.096636   -1.636047   -0.001757
  15 O     8.0000    0    15.999    7.419551   -0.098308   -5.038922
  16 H     1.0000    0     1.008    6.168278    0.038809   -3.714511
  17 H     1.0000    0     1.008    6.513146    0.459892   -6.523901

--------------------------------
INTERNAL COORDINATES (ANGSTROEM)
--------------------------------
 N      0   0   0     0.000000000000     0.00000000     0.00000000
 N      1   0   0     6.793338004310     0.00000000     0.00000000
 C      1   2   0     1.366495893653     0.00632574     0.00000000
 C      3   1   2     1.413787220044   120.92855565   268.44495865
 C      3   1   4     1.413787170716   120.92852311   179.99054049
 C      4   3   1     2.431159970143    91.00529528   179.99053493
 C      4   3   1     1.386807727499   120.84652564   179.99046488
 C      5   3   1     1.386807309689   120.84651345   180.00973372
 C      2   1   3     1.162504199719     0.00149432    22.65505679
 H      4   3   1     1.093145010485   119.42625552     0.00000000
 H      5   3   1     1.093145474526   119.42623369     0.00000000
 H      7   4   3     1.091782740378   119.76614405   179.99954670
 H      8   5   3     1.091782505807   119.76646553   180.00025981
 H      1   2   9     1.009246815006   120.93672721   114.12525345
 H      1   2   9     1.009246864694   120.93705257   294.30442993
 O      1   2   9     2.755091869648   104.49325746    23.10001523
 H     16   1   2     0.966896918053    29.01653784     7.21253382
 H     16   1   2     0.966863511555   131.05406521    25.21525468

---------------------------
INTERNAL COORDINATES (A.U.)
---------------------------
 N      0   0   0     0.000000000000     0.00000000     0.00000000
 N      1   0   0    12.837548363305     0.00000000     0.00000000
 C      1   2   0     2.582303002133     0.00632574     0.00000000
 C      3   1   2     2.671670657522   120.92855565   268.44495865
 C      3   1   4     2.671670564304   120.92852311   179.99054049
 C      4   3   1     4.594226531322    91.00529528   179.99053493
 C      4   3   1     2.620686805379   120.84652564   179.99046488
 C      5   3   1     2.620686015832   120.84651345   180.00973372
 C      2   1   3     2.196814567002     0.00149432    22.65505679
 H      4   3   1     2.065744694479   119.42625552     0.00000000
 H      5   3   1     2.065745571390   119.42623369     0.00000000
 H      7   4   3     2.063170377057   119.76614405   179.99954670
 H      8   5   3     2.063169933781   119.76646553   180.00025981
 H      1   2   9     1.907200081894   120.93672721   114.12525345
 H      1   2   9     1.907200175791   120.93705257   294.30442993
 O      1   2   9     5.206369107428   104.49325746    23.10001523
 H     16   1   2     1.827170374853    29.01653784     7.21253382
 H     16   1   2     1.827107245721   131.05406521    25.21525468

---------------------
BASIS SET INFORMATION
---------------------
There are 4 groups of distinct atoms

 Group   1 Type N   : 7s4p1d contracted to 3s2p1d pattern {511/31/1}
 Group   2 Type C   : 7s4p1d contracted to 3s2p1d pattern {511/31/1}
 Group   3 Type H   : 4s1p contracted to 2s1p pattern {31/1}
 Group   4 Type O   : 7s4p1d contracted to 3s2p1d pattern {511/31/1}

Atom   0N    basis set group =>   1
Atom   1N    basis set group =>   1
Atom   2C    basis set group =>   2
Atom   3C    basis set group =>   2
Atom   4C    basis set group =>   2
Atom   5C    basis set group =>   2
Atom   6C    basis set group =>   2
Atom   7C    basis set group =>   2
Atom   8C    basis set group =>   2
Atom   9H    basis set group =>   3
Atom  10H    basis set group =>   3
Atom  11H    basis set group =>   3
Atom  12H    basis set group =>   3
Atom  13H    basis set group =>   3
Atom  14H    basis set group =>   3
Atom  15O    basis set group =>   4
Atom  16H    basis set group =>   3
Atom  17H    basis set group =>   3
---------------------------------
AUXILIARY/J BASIS SET INFORMATION
---------------------------------
There are 4 groups of distinct atoms

 Group   1 Type N   : 12s5p4d2f1g contracted to 6s4p3d1f1g pattern {711111/2111/211/2/1}
 Group   2 Type C   : 12s5p4d2f1g contracted to 6s4p3d1f1g pattern {711111/2111/211/2/1}
 Group   3 Type H   : 5s2p1d contracted to 3s1p1d pattern {311/2/1}
 Group   4 Type O   : 12s5p4d2f1g contracted to 6s4p3d1f1g pattern {711111/2111/211/2/1}

Atom   0N    basis set group =>   1
Atom   1N    basis set group =>   1
Atom   2C    basis set group =>   2
Atom   3C    basis set group =>   2
Atom   4C    basis set group =>   2
Atom   5C    basis set group =>   2
Atom   6C    basis set group =>   2
Atom   7C    basis set group =>   2
Atom   8C    basis set group =>   2
Atom   9H    basis set group =>   3
Atom  10H    basis set group =>   3
Atom  11H    basis set group =>   3
Atom  12H    basis set group =>   3
Atom  13H    basis set group =>   3
Atom  14H    basis set group =>   3
Atom  15O    basis set group =>   4
Atom  16H    basis set group =>   3
Atom  17H    basis set group =>   3
--------------------------------------------------------------------------
By default, for Open MPI 4.0 and later, infiniband ports on a device
are not used by default.  The intent is to use UCX for these devices.
You can override this policy by setting the btl_openib_allow_ib MCA parameter
to true.

  Local host:              psid01
  Local adapter:           mlx5_0
  Local port:              1

--------------------------------------------------------------------------
--------------------------------------------------------------------------
WARNING: There was an error initializing an OpenFabrics device.

  Local host:   psid01
  Local device: mlx5_0
--------------------------------------------------------------------------


           ************************************************************
           *        Program running with 28 parallel MPI-processes    *
           *              working on a common directory               *
           ************************************************************
------------------------------------------------------------------------------
                             ORCA STARTUP CALCULATIONS
                           -- RI-GTO INTEGRALS CHOSEN --
------------------------------------------------------------------------------
------------------------------------------------------------------------------
                   ___                                                        
                  /   \      - P O W E R E D   B Y -                         
                 /     \                                                     
                 |  |  |   _    _      __       _____    __    __             
                 |  |  |  | |  | |    /  \     |  _  \  |  |  /  |          
                  \  \/   | |  | |   /    \    | | | |  |  | /  /          
                 / \  \   | |__| |  /  /\  \   | |_| |  |  |/  /          
                |  |  |   |  __  | /  /__\  \  |    /   |      \           
                |  |  |   | |  | | |   __   |  |    \   |  |\   \          
                \     /   | |  | | |  |  |  |  | |\  \  |  | \   \       
                 \___/    |_|  |_| |__|  |__|  |_| \__\ |__|  \__/        
                                                                              
                      - O R C A' S   B I G   F R I E N D -                    
                                      &                                       
                       - I N T E G R A L  F E E D E R -                       
                                                                              
 v1 FN, 2020, v2 2021, v3 2022-2024                                           
------------------------------------------------------------------------------


----------------------
SHARK INTEGRAL PACKAGE
----------------------

Number of atoms                             ...     18
Number of basis functions                   ...    180
Number of shells                            ...     84
Maximum angular momentum                    ...      2
Integral batch strategy                     ... SHARK/LIBINT Hybrid
RI-J (if used) integral strategy            ... SPLIT-RIJ (Revised 2003 algorithm where possible)
Printlevel                                  ...      1
Contraction scheme used                     ... SEGMENTED contraction
Prescreening option                         ... SCHWARTZ
   Thresh                                   ... 2.500e-11
   Tcut                                     ... 2.500e-12
   Tpresel                                  ... 2.500e-12 
Coulomb Range Separation                    ... NOT USED
Exchange Range Separation                   ... NOT USED
Multipole approximations                    ... NOT USED
Finite Nucleus Model                        ... NOT USED
CABS basis                                  ... NOT available
Auxiliary Coulomb fitting basis             ... AVAILABLE
   # of basis functions in Aux-J            ...    578
   # of shells in Aux-J                     ...    190
   Maximum angular momentum in Aux-J        ...      4
Auxiliary J/K fitting basis                 ... NOT available
Auxiliary Correlation fitting basis         ... NOT available
Auxiliary 'external' fitting basis          ... NOT available

Checking pre-screening integrals            ... done (  0.0 sec) Dimension = 84
Check shell pair data                       ... done (  0.0 sec)
Shell pair information
Shell pair cut-off parameter TPreSel        ...   2.5e-12
Total number of shell pairs                 ...      3570
Shell pairs after pre-screening             ...      3156
Total number of primitive shell pairs       ...     13034
Primitive shell pairs kept                  ...      8167
          la=0 lb=0:    965 shell pairs
          la=1 lb=0:   1151 shell pairs
          la=1 lb=1:    366 shell pairs
          la=2 lb=0:    389 shell pairs
          la=2 lb=1:    240 shell pairs
          la=2 lb=2:     45 shell pairs

Calculating one electron integrals          ... done (  0.0 sec)
Calculating RI/J V-Matrix + Cholesky decomp.... done (  0.0 sec)
Calculating Nuclear repulsion               ... done (  0.0 sec) ENN=    459.388420747228 Eh

Diagonalization of the overlap matrix:
Smallest eigenvalue                        ... 2.721e-04
Time for diagonalization                   ...    0.003 sec
Threshold for overlap eigenvalues          ... 1.000e-07
Number of eigenvalues below threshold      ... 0
Time for construction of square roots      ...    0.002 sec
Total time needed                          ...    0.011 sec

-------------------
DFT GRID GENERATION
-------------------

General Integration Accuracy     IntAcc      ... 4.388
Radial Grid Type                 RadialGrid  ... OptM3 with GC (2021)
Angular Grid (max. ang.)         AngularGrid ... 4 (Lebedev-302)
Angular grid pruning method      GridPruning ... 4 (adaptive)
Weight generation scheme         WeightScheme... mBecke (2022)
Basis function cutoff            BFCut       ... 1.0000e-11
Integration weight cutoff        WCut        ... 1.0000e-14
Partially contracted basis set               ... off
Rotationally invariant grid construction     ... off
Angular grids for H and He will be reduced by one unit

Total number of grid points                  ...    85989
Total number of batches                      ...     1352
Average number of points per batch           ...       63
Average number of grid points per atom       ...     4777

--------------------
COSX GRID GENERATION
--------------------

GRIDX 1
-------
General Integration Accuracy     IntAcc      ... 3.816
Radial Grid Type                 RadialGrid  ... OptM3 with GC (2021)
Angular Grid (max. ang.)         AngularGrid ... 1 (Lebedev-50)
Angular grid pruning method      GridPruning ... 4 (adaptive)
Weight generation scheme         WeightScheme... mBecke (2022)
Basis function cutoff            BFCut       ... 1.0000e-11
Integration weight cutoff        WCut        ... 1.0000e-14
Partially contracted basis set               ... on
Rotationally invariant grid construction     ... off
Angular grids for H and He will be reduced by one unit

Total number of grid points                  ...    10978
Total number of batches                      ...       94
Average number of points per batch           ...      116
Average number of grid points per atom       ...      610
UseSFitting                                  ... on

GRIDX 2
-------
General Integration Accuracy     IntAcc      ... 4.020
Radial Grid Type                 RadialGrid  ... OptM3 with GC (2021)
Angular Grid (max. ang.)         AngularGrid ... 2 (Lebedev-110)
Angular grid pruning method      GridPruning ... 4 (adaptive)
Weight generation scheme         WeightScheme... mBecke (2022)
Basis function cutoff            BFCut       ... 1.0000e-11
Integration weight cutoff        WCut        ... 1.0000e-14
Partially contracted basis set               ... on
Rotationally invariant grid construction     ... off
Angular grids for H and He will be reduced by one unit

Total number of grid points                  ...    24053
Total number of batches                      ...      198
Average number of points per batch           ...      121
Average number of grid points per atom       ...     1336
UseSFitting                                  ... on

GRIDX 3
-------
General Integration Accuracy     IntAcc      ... 4.338
Radial Grid Type                 RadialGrid  ... OptM3 with GC (2021)
Angular Grid (max. ang.)         AngularGrid ... 3 (Lebedev-194)
Angular grid pruning method      GridPruning ... 4 (adaptive)
Weight generation scheme         WeightScheme... mBecke (2022)
Basis function cutoff            BFCut       ... 1.0000e-11
Integration weight cutoff        WCut        ... 1.0000e-14
Partially contracted basis set               ... on
Rotationally invariant grid construction     ... off
Angular grids for H and He will be reduced by one unit

Total number of grid points                  ...    52948
Total number of batches                      ...      422
Average number of points per batch           ...      125
Average number of grid points per atom       ...     2942
UseSFitting                                  ... on
Initializing property integral containers    ... done (  0.0 sec)

SHARK setup successfully completed in   0.9 seconds

Maximum memory used throughout the entire STARTUP-calculation: 22.1 MB
[psid01:71539] 27 more processes have sent help message help-mpi-btl-openib.txt / ib port not selected
[psid01:71539] Set MCA parameter "orte_base_help_aggregate" to 0 to see all help / error messages
[psid01:71539] 27 more processes have sent help message help-mpi-btl-openib.txt / error in device init
--------------------------------------------------------------------------
By default, for Open MPI 4.0 and later, infiniband ports on a device
are not used by default.  The intent is to use UCX for these devices.
You can override this policy by setting the btl_openib_allow_ib MCA parameter
to true.

  Local host:              psid01
  Local adapter:           mlx5_0
  Local port:              1

--------------------------------------------------------------------------
--------------------------------------------------------------------------
WARNING: There was an error initializing an OpenFabrics device.

  Local host:   psid01
  Local device: mlx5_0
--------------------------------------------------------------------------


           ************************************************************
           *        Program running with 28 parallel MPI-processes    *
           *              working on a common directory               *
           ************************************************************
-------------------------------------------------------------------------------
                                 ORCA GUESS
                   Start orbitals & Density for SCF / CASSCF
-------------------------------------------------------------------------------

------------
SCF SETTINGS
------------
Hamiltonian:
 Density Functional     Method          .... DFT(GTOs)
 Exchange Functional    Exchange        .... B88
   X-Alpha parameter    XAlpha          ....  0.666667
   Becke's b parameter  XBeta           ....  0.004200
 Correlation Functional Correlation     .... LYP
 LDA part of GGA corr.  LDAOpt          .... VWN-5
 Gradients option       PostSCFGGA      .... off
 Hybrid DFT is turned on
   Fraction HF Exchange ScalHFX         ....  0.200000
   Scaling of DF-GGA-X  ScalDFX         ....  0.720000
   Scaling of DF-GGA-C  ScalDFC         ....  0.810000
   Scaling of DF-LDA-C  ScalLDAC        ....  1.000000
   Perturbative correction              ....  0.000000
   NL short-range parameter             ....  4.800000
 RI-approximation to the Coulomb term is turned on
   Number of AuxJ basis functions       .... 578
   RIJ-COSX (HFX calculated with COS-X)).... on


General Settings:
 Integral files         IntName         .... ABN_water_2_OPT
 Hartree-Fock type      HFTyp           .... RHF
 Total Charge           Charge          ....    0
 Multiplicity           Mult            ....    1
 Number of Electrons    NEL             ....   72
 Basis Dimension        Dim             ....  180
 Nuclear Repulsion      ENuc            ....    459.3884207472 Eh

Convergence Acceleration:
 AO-DIIS                CNVDIIS         .... on
   Start iteration      DIISMaxIt       ....    12
   Startup error        DIISStart       ....  0.200000
   # of expansion vecs  DIISMaxEq       ....     5
   Bias factor          DIISBfac        ....   1.050
   Max. coefficient     DIISMaxC        ....  10.000
 MO-DIIS                CNVKDIIS        .... off
 Trust-Rad. Augm. Hess. CNVTRAH         .... auto
   Auto Start mean grad. ratio tolernc. ....  1.125000
   Auto Start start iteration           ....    50
   Auto Start num. interpolation iter.  ....    10
   Max. Number of Micro iterations      ....    24
   Max. Number of Macro iterations      .... Maxiter - #DIIS iter
   Number of Davidson start vectors     ....     2
   Converg. threshold    (grad. norm)   ....   1.000e-05
   Grad. Scal. Fac. for Micro threshold ....   0.100
   Minimum threshold for Micro iter.    ....   1.000e-02
   NR start threshold (gradient norm)   ....   1.000e-04
   Initial trust radius                 ....   0.400
   Minimum AH scaling param. (alpha)    ....   1.000
   Maximum AH scaling param. (alpha)    .... 1000.000
   Quad. conv. algorithm                .... NR
   White noise on init. David. guess    .... on
   Maximum white noise                  ....   0.010
   Pseudo random numbers                .... off
   Inactive MOs                         .... canonical
   Orbital update algorithm             .... Taylor
   Preconditioner                       .... Diag
   Full preconditioner red. dimension   ....   250
 SOSCF                  CNVSOSCF        .... on
   Start iteration      SOSCFMaxIt      ....   150
   Startup grad/error   SOSCFStart      ....  0.003300
   Hessian update       SOSCFHessUp     .... L-BFGS
 Level Shifting         CNVShift        .... on
   Level shift para.    LevelShift      ....    0.2500
   Turn off err/grad.   ShiftErr        ....    0.0010
 Zerner damping         CNVZerner       .... off
 Static damping         CNVDamp         .... on
   Fraction old density DampFac         ....    0.7000
   Max. Damping (<1)    DampMax         ....    0.9800
   Min. Damping (>=0)   DampMin         ....    0.0000
   Turn off err/grad.   DampErr         ....    0.1000

SCF Procedure:
 Maximum # iterations   MaxIter         ....   125
 SCF integral mode      SCFMode         .... Direct
   Integral package                     .... SHARK and LIBINT hybrid scheme
 Reset frequency        DirectResetFreq ....    20
 Integral Threshold     Thresh          ....  2.500e-11 Eh
 Primitive CutOff       TCut            ....  2.500e-12 Eh

Convergence Tolerance:
 Convergence Check Mode ConvCheckMode   .... Total+1el-Energy
 Convergence forced     ConvForced      .... 0
 Energy Change          TolE            ....  1.000e-08 Eh
 1-El. energy change                    ....  1.000e-05 Eh
 Orbital Gradient       TolG            ....  1.000e-05
 Orbital Rotation angle TolX            ....  1.000e-05
 DIIS Error             TolErr          ....  5.000e-07

------------------------------
INITIAL GUESS: MODEL POTENTIAL
------------------------------
Loading Hartree-Fock densities                     ... done
Calculating cut-offs                               ... done
Initializing the effective Hamiltonian             ... done
Setting up the integral package (SHARK)            ... done
Starting the Coulomb interaction                   ... done (   0.0 sec)
Making the grid                                    ... done (   0.1 sec)
Mapping shells                                     ... done
Starting the XC term evaluation                    ... done (   0.0 sec)
  promolecular density results
     # of electrons  =     72.000006931
     EX              =    -59.648342230
     EC              =     -2.428854400
     EX+EC           =    -62.077196630
Transforming the Hamiltonian                       ... done (   0.0 sec)
Diagonalizing the Hamiltonian                      ... done (   0.0 sec)
Back transforming the eigenvectors                 ... done (   0.0 sec)
Now organizing SCF variables                       ... done
                      ------------------
                      INITIAL GUESS DONE (   0.2 sec)
                      ------------------
             **** ENERGY FILE WAS UPDATED (ABN_water_2_OPT.en.tmp) ****
Finished Guess after   1.0 sec
Maximum memory used throughout the entire GUESS-calculation: 12.7 MB
[psid01:71641] 27 more processes have sent help message help-mpi-btl-openib.txt / ib port not selected
[psid01:71641] Set MCA parameter "orte_base_help_aggregate" to 0 to see all help / error messages
[psid01:71641] 27 more processes have sent help message help-mpi-btl-openib.txt / error in device init
--------------------------------------------------------------------------
By default, for Open MPI 4.0 and later, infiniband ports on a device
are not used by default.  The intent is to use UCX for these devices.
You can override this policy by setting the btl_openib_allow_ib MCA parameter
to true.

  Local host:              psid01
  Local adapter:           mlx5_0
  Local port:              1

--------------------------------------------------------------------------
--------------------------------------------------------------------------
WARNING: There was an error initializing an OpenFabrics device.

  Local host:   psid01
  Local device: mlx5_0
--------------------------------------------------------------------------


           ************************************************************
           *        Program running with 28 parallel MPI-processes    *
           *              working on a common directory               *
           ************************************************************

-------------------------------------------------------------------------------------------
                                      ORCA LEAN-SCF
                              memory conserving SCF solver
-------------------------------------------------------------------------------------------

----------------------------------------D-I-I-S--------------------------------------------
Iteration    Energy (Eh)           Delta-E    RMSDP     MaxDP     DIISErr   Damp  Time(sec)
-------------------------------------------------------------------------------------------
               ***  Starting incremental Fock matrix formation  ***
    1    -455.3487188517723325     0.00e+00  4.10e-03  9.08e-02  3.07e-01  0.700   0.4
    2    -455.5023029498320284    -1.54e-01  2.74e-03  5.12e-02  1.29e-01  0.700   0.3
                               ***Turning on AO-DIIS***
    3    -455.5588256924298776    -5.65e-02  1.31e-03  2.60e-02  4.09e-02  0.700   0.3
    4    -455.5943741652959034    -3.55e-02  2.25e-03  4.27e-02  2.03e-02  0.000   0.3
    5    -455.6720878156326080    -7.77e-02  3.81e-04  1.00e-02  1.00e-02  0.000   0.3
                              *** Initializing SOSCF ***
---------------------------------------S-O-S-C-F--------------------------------------
Iteration    Energy (Eh)           Delta-E    RMSDP     MaxDP     MaxGrad    Time(sec)
--------------------------------------------------------------------------------------
    6    -455.6726653432897365    -5.78e-04  1.21e-04  3.12e-03  1.48e-03     0.3
               *** Restarting incremental Fock matrix formation ***
    7    -455.6726088189809616     5.65e-05  6.61e-05  1.09e-03  2.46e-04     0.4
    8    -455.6726089908659105    -1.72e-07  3.14e-05  7.83e-04  4.59e-04     0.3
    9    -455.6726110745588585    -2.08e-06  2.53e-05  5.50e-04  3.08e-04     0.4
   10    -455.6726111926885778    -1.18e-07  1.37e-05  2.76e-04  1.55e-04     0.3
   11    -455.6726117934936156    -6.01e-07  6.61e-06  1.97e-04  4.75e-05     0.3
   12    -455.6726117623404662     3.12e-08  4.00e-06  1.10e-04  5.22e-05     0.3
   13    -455.6726118376129762    -7.53e-08  1.61e-06  3.33e-05  7.98e-06     0.3
[psid01:71732] 27 more processes have sent help message help-mpi-btl-openib.txt / ib port not selected
[psid01:71732] Set MCA parameter "orte_base_help_aggregate" to 0 to see all help / error messages
[psid01:71732] 27 more processes have sent help message help-mpi-btl-openib.txt / error in device init
   14    -455.6726118385070095    -8.94e-10  7.60e-07  1.80e-05  9.90e-06     0.3
                 **** Energy Check signals convergence ****

               *****************************************************
               *                     SUCCESS                       *
               *           SCF CONVERGED AFTER  14 CYCLES          *
               *****************************************************

Recomputing exchange energy using gridx3       ... done (    0.296 sec)
Old exchange energy                            :    -12.091082389 Eh
New exchange energy                            :    -12.091064514 Eh
Exchange energy change after final integration :      0.000017876 Eh
Total energy after final integration           :   -455.672593963 Eh
             **** ENERGY FILE WAS UPDATED (ABN_water_2_OPT.en.tmp) ****

----------------
TOTAL SCF ENERGY
----------------

Total Energy       :       -455.67259396295066 Eh          -12399.48166 eV

Components:
Nuclear Repulsion  :        459.38842074722766 Eh           12500.59445 eV
Electronic Energy  :       -915.06103258573467 Eh          -24900.07659 eV
One Electron Energy:      -1527.40762534074111 Eh          -41562.87450 eV
Two Electron Energy:        612.34659275500644 Eh           16662.79791 eV

Virial components:
Potential Energy   :       -907.03617853536934 Eh          -24681.70921 eV
Kinetic Energy     :        451.36358457241863 Eh           12282.22755 eV
Virial Ratio       :          2.00954664828492

DFT components:
N(Alpha)           :       35.999995524360 electrons
N(Beta)            :       35.999995524360 electrons
N(Total)           :       71.999991048720 electrons
E(X)               :      -48.066762480757 Eh       
E(C)               :       -2.874269932950 Eh       
E(XC)              :      -50.941032413707 Eh       

---------------
SCF CONVERGENCE
---------------

  Last Energy change         ...    8.9403e-10  Tolerance :   1.0000e-08
  Last MAX-Density change    ...    1.7951e-05  Tolerance :   1.0000e-07
  Last RMS-Density change    ...    7.5952e-07  Tolerance :   5.0000e-09
  Last DIIS Error            ...    1.4753e-03  Tolerance :   5.0000e-07
  Last Orbital Gradient      ...    9.8991e-06  Tolerance :   1.0000e-05
  Last Orbital Rotation      ...    1.7284e-05  Tolerance :   1.0000e-05


----------------
ORBITAL ENERGIES
----------------

  NO   OCC          E(Eh)            E(eV) 
   0   2.0000     -19.112018      -520.0644 
   1   2.0000     -14.368842      -390.9961 
   2   2.0000     -14.314018      -389.5042 
   3   2.0000     -10.261178      -279.2208 
   4   2.0000     -10.224061      -278.2108 
   5   2.0000     -10.217331      -278.0277 
   6   2.0000     -10.216971      -278.0179 
   7   2.0000     -10.215680      -277.9828 
   8   2.0000     -10.207831      -277.7692 
   9   2.0000     -10.207262      -277.7537 
  10   2.0000      -0.976372       -26.5684 
  11   2.0000      -0.945030       -25.7156 
  12   2.0000      -0.887363       -24.1464 
  13   2.0000      -0.855943       -23.2914 
  14   2.0000      -0.763374       -20.7725 
  15   2.0000      -0.759923       -20.6786 
  16   2.0000      -0.647323       -17.6146 
  17   2.0000      -0.637978       -17.3603 
  18   2.0000      -0.561831       -15.2882 
  19   2.0000      -0.549682       -14.9576 
  20   2.0000      -0.543613       -14.7925 
  21   2.0000      -0.512133       -13.9359 
  22   2.0000      -0.466457       -12.6929 
  23   2.0000      -0.458890       -12.4870 
  24   2.0000      -0.443672       -12.0729 
  25   2.0000      -0.419094       -11.4041 
  26   2.0000      -0.414413       -11.2767 
  27   2.0000      -0.376519       -10.2456 
  28   2.0000      -0.372137       -10.1263 
  29   2.0000      -0.361198        -9.8287 
  30   2.0000      -0.347339        -9.4516 
  31   2.0000      -0.324666        -8.8346 
  32   2.0000      -0.315558        -8.5868 
  33   2.0000      -0.288752        -7.8573 
  34   2.0000      -0.279820        -7.6143 
  35   2.0000      -0.228016        -6.2046 
  36   0.0000      -0.038895        -1.0584 
  37   0.0000      -0.029376        -0.7994 
  38   0.0000       0.032103         0.8736 
  39   0.0000       0.042954         1.1688 
  40   0.0000       0.057951         1.5769 
  41   0.0000       0.067151         1.8273 
  42   0.0000       0.070766         1.9256 
  43   0.0000       0.084376         2.2960 
  44   0.0000       0.111758         3.0411 
  45   0.0000       0.116484         3.1697 
  46   0.0000       0.149384         4.0650 
*Only the first 10 virtual orbitals were printed.

                    ********************************
                    * MULLIKEN POPULATION ANALYSIS *
                    ********************************

-----------------------
MULLIKEN ATOMIC CHARGES
-----------------------
   0 N :   -0.070243
   1 N :    0.045459
   2 C :    0.056514
   3 C :   -0.016047
   4 C :   -0.022516
   5 C :   -0.099500
   6 C :    0.042069
   7 C :    0.042611
   8 C :   -0.121733
   9 H :   -0.028803
  10 H :   -0.031518
  11 H :   -0.007161
  12 H :   -0.007811
  13 H :    0.124562
  14 H :    0.129615
  15 O :   -0.307368
  16 H :    0.122630
  17 H :    0.149242
Sum of atomic charges:   -0.0000000

--------------------------------
MULLIKEN REDUCED ORBITAL CHARGES
--------------------------------
  0 N s       :     3.300342  s :     3.300342
      pz      :     1.712535  p :     3.754438
      px      :     1.039009
      py      :     1.002893
      dz2     :     0.001886  d :     0.015463
      dxz     :     0.002718
      dyz     :     0.000042
      dx2y2   :     0.004477
      dxy     :     0.006341

  1 N s       :     3.536447  s :     3.536447
      pz      :     1.077692  p :     3.386669
      px      :     1.280009
      py      :     1.028968
      dz2     :     0.002962  d :     0.031425
      dxz     :     0.009669
      dyz     :     0.000000
      dx2y2   :     0.008831
      dxy     :     0.009963

  2 C s       :     2.992678  s :     2.992678
      pz      :     0.939941  p :     2.887893
      px      :     0.890630
      py      :     1.057322
      dz2     :     0.004322  d :     0.062915
      dxz     :     0.017121
      dyz     :     0.006561
      dx2y2   :     0.019524
      dxy     :     0.015387

  3 C s       :     3.221671  s :     3.221671
      pz      :     1.063320  p :     2.762158
      px      :     0.867939
      py      :     0.830900
      dz2     :     0.002617  d :     0.032218
      dxz     :     0.005014
      dyz     :     0.002840
      dx2y2   :     0.009362
      dxy     :     0.012385

  4 C s       :     3.223336  s :     3.223336
      pz      :     1.068949  p :     2.766944
      px      :     0.868863
      py      :     0.829132
      dz2     :     0.002615  d :     0.032237
      dxz     :     0.005030
      dyz     :     0.002834
      dx2y2   :     0.009357
      dxy     :     0.012401

  5 C s       :     3.042216  s :     3.042216
      pz      :     1.095497  p :     3.014473
      px      :     0.954912
      py      :     0.964063
      dz2     :     0.003281  d :     0.042812
      dxz     :     0.005145
      dyz     :     0.006131
      dx2y2   :     0.015146
      dxy     :     0.013110

  6 C s       :     3.222623  s :     3.222623
      pz      :     0.945155  p :     2.699497
      px      :     0.899248
      py      :     0.855094
      dz2     :     0.002638  d :     0.035812
      dxz     :     0.006979
      dyz     :     0.003530
      dx2y2   :     0.010550
      dxy     :     0.012114

  7 C s       :     3.222198  s :     3.222198
      pz      :     0.945594  p :     2.699371
      px      :     0.898394
      py      :     0.855382
      dz2     :     0.002638  d :     0.035820
      dxz     :     0.006999
      dyz     :     0.003528
      dx2y2   :     0.010559
      dxy     :     0.012096

  8 C s       :     3.110957  s :     3.110957
      pz      :     0.959348  p :     2.964680
      px      :     1.034482
      py      :     0.970850
      dz2     :     0.003393  d :     0.046096
      dxz     :     0.018525
      dyz     :     0.000046
      dx2y2   :     0.009537
      dxy     :     0.014596

  9 H s       :     1.005708  s :     1.005708
      pz      :     0.005172  p :     0.023096
      px      :     0.005821
      py      :     0.012103

 10 H s       :     1.008432  s :     1.008432
      pz      :     0.005207  p :     0.023086
      px      :     0.005808
      py      :     0.012071

 11 H s       :     0.984255  s :     0.984255
      pz      :     0.004445  p :     0.022906
      px      :     0.006359
      py      :     0.012102

 12 H s       :     0.984899  s :     0.984899
      pz      :     0.004460  p :     0.022912
      px      :     0.006366
      py      :     0.012087

 13 H s       :     0.830520  s :     0.830520
      pz      :     0.012774  p :     0.044919
      px      :     0.011974
      py      :     0.020171

 14 H s       :     0.825561  s :     0.825561
      pz      :     0.012608  p :     0.044824
      px      :     0.011944
      py      :     0.020272

 15 O s       :     3.672577  s :     3.672577
      pz      :     1.194719  p :     4.624174
      px      :     1.536130
      py      :     1.893325
      dz2     :     0.000138  d :     0.010618
      dxz     :     0.006162
      dyz     :     0.000809
      dx2y2   :     0.001999
      dxy     :     0.001508

 16 H s       :     0.803037  s :     0.803037
      pz      :     0.030949  p :     0.074332
      px      :     0.024181
      py      :     0.019203

 17 H s       :     0.780707  s :     0.780707
      pz      :     0.029504  p :     0.070051
      px      :     0.020015
      py      :     0.020532



                     *******************************
                     * LOEWDIN POPULATION ANALYSIS *
                     *******************************

----------------------
LOEWDIN ATOMIC CHARGES
----------------------
   0 N :    0.020589
   1 N :   -0.081823
   2 C :    0.026973
   3 C :   -0.062306
   4 C :   -0.066294
   5 C :   -0.100268
   6 C :    0.020499
   7 C :    0.019831
   8 C :   -0.031191
   9 H :    0.028723
  10 H :    0.027240
  11 H :    0.039335
  12 H :    0.039012
  13 H :    0.079894
  14 H :    0.082889
  15 O :   -0.162255
  16 H :    0.043838
  17 H :    0.075314

-------------------------------
LOEWDIN REDUCED ORBITAL CHARGES
-------------------------------
  0 N s       :     3.017682  s :     3.017682
      pz      :     1.629286  p :     3.919712
      px      :     1.139355
      py      :     1.151072
      dz2     :     0.003130  d :     0.042017
      dxz     :     0.005244
      dyz     :     0.000047
      dx2y2   :     0.014012
      dxy     :     0.019584

  1 N s       :     3.427108  s :     3.427108
      pz      :     1.086462  p :     3.601702
      px      :     1.472203
      py      :     1.043037
      dz2     :     0.006385  d :     0.053013
      dxz     :     0.013539
      dyz     :     0.000000
      dx2y2   :     0.019109
      dxy     :     0.013979

  2 C s       :     2.837657  s :     2.837657
      pz      :     0.924910  p :     2.985346
      px      :     0.961707
      py      :     1.098729
      dz2     :     0.009592  d :     0.150024
      dxz     :     0.035797
      dyz     :     0.013337
      dx2y2   :     0.051062
      dxy     :     0.040236

  3 C s       :     2.858074  s :     2.858074
      pz      :     1.043766  p :     3.118065
      px      :     1.052933
      py      :     1.021366
      dz2     :     0.006361  d :     0.086167
      dxz     :     0.010367
      dyz     :     0.005309
      dx2y2   :     0.028552
      dxy     :     0.035578

  4 C s       :     2.858084  s :     2.858084
      pz      :     1.047905  p :     3.121957
      px      :     1.053215
      py      :     1.020837
      dz2     :     0.006352  d :     0.086253
      dxz     :     0.010417
      dyz     :     0.005304
      dx2y2   :     0.028542
      dxy     :     0.035638

  5 C s       :     2.837993  s :     2.837993
      pz      :     1.060355  p :     3.149932
      px      :     1.013559
      py      :     1.076018
      dz2     :     0.008159  d :     0.112343
      dxz     :     0.010764
      dyz     :     0.012688
      dx2y2   :     0.043681
      dxy     :     0.037051

  6 C s       :     2.860224  s :     2.860224
      pz      :     0.935039  p :     3.027547
      px      :     1.055262
      py      :     1.037246
      dz2     :     0.006218  d :     0.091730
      dxz     :     0.014588
      dyz     :     0.006876
      dx2y2   :     0.030078
      dxy     :     0.033969

  7 C s       :     2.860182  s :     2.860182
      pz      :     0.935792  p :     3.028204
      px      :     1.055091
      py      :     1.037321
      dz2     :     0.006217  d :     0.091783
      dxz     :     0.014670
      dyz     :     0.006874
      dx2y2   :     0.030106
      dxy     :     0.033915

  8 C s       :     2.909078  s :     2.909078
      pz      :     0.937586  p :     3.011762
      px      :     1.152939
      py      :     0.921237
      dz2     :     0.010199  d :     0.110350
      dxz     :     0.038441
      dyz     :     0.000049
      dx2y2   :     0.030301
      dxy     :     0.031360

  9 H s       :     0.903070  s :     0.903070
      pz      :     0.015989  p :     0.068208
      px      :     0.017316
      py      :     0.034902

 10 H s       :     0.904541  s :     0.904541
      pz      :     0.016136  p :     0.068219
      px      :     0.017284
      py      :     0.034799

 11 H s       :     0.893626  s :     0.893626
      pz      :     0.013238  p :     0.067040
      px      :     0.018370
      py      :     0.035432

 12 H s       :     0.893952  s :     0.893952
      pz      :     0.013265  p :     0.067035
      px      :     0.018381
      py      :     0.035389

 13 H s       :     0.795273  s :     0.795273
      pz      :     0.042173  p :     0.124833
      px      :     0.029243
      py      :     0.053416

 14 H s       :     0.792431  s :     0.792431
      pz      :     0.041950  p :     0.124680
      px      :     0.029160
      py      :     0.053569

 15 O s       :     3.432974  s :     3.432974
      pz      :     1.267593  p :     4.709799
      px      :     1.598636
      py      :     1.843569
      dz2     :     0.001312  d :     0.019482
      dxz     :     0.012716
      dyz     :     0.001841
      dx2y2   :     0.002351
      dxy     :     0.001262

 16 H s       :     0.758674  s :     0.758674
      pz      :     0.074202  p :     0.197488
      px      :     0.070987
      py      :     0.052299

 17 H s       :     0.749194  s :     0.749194
      pz      :     0.064247  p :     0.175491
      px      :     0.054601
      py      :     0.056643



                      *****************************
                      * MAYER POPULATION ANALYSIS *
                      *****************************

  NA   - Mulliken gross atomic population
  ZA   - Total nuclear charge
  QA   - Mulliken gross atomic charge
  VA   - Mayer's total valence
  BVA  - Mayer's bonded valence
  FA   - Mayer's free valence

  ATOM       NA         ZA         QA         VA         BVA        FA
  0 N      7.0702     7.0000    -0.0702     3.2496     3.2496    -0.0000
  1 N      6.9545     7.0000     0.0455     3.1342     3.1342    -0.0000
  2 C      5.9435     6.0000     0.0565     4.0308     4.0308     0.0000
  3 C      6.0160     6.0000    -0.0160     3.7821     3.7821    -0.0000
  4 C      6.0225     6.0000    -0.0225     3.7789     3.7789    -0.0000
  5 C      6.0995     6.0000    -0.0995     3.9009     3.9009    -0.0000
  6 C      5.9579     6.0000     0.0421     3.8869     3.8869     0.0000
  7 C      5.9574     6.0000     0.0426     3.8864     3.8864     0.0000
  8 C      6.1217     6.0000    -0.1217     4.0539     4.0539    -0.0000
  9 H      1.0288     1.0000    -0.0288     0.9883     0.9883    -0.0000
 10 H      1.0315     1.0000    -0.0315     0.9877     0.9877    -0.0000
 11 H      1.0072     1.0000    -0.0072     0.9856     0.9856     0.0000
 12 H      1.0078     1.0000    -0.0078     0.9855     0.9855     0.0000
 13 H      0.8754     1.0000     0.1246     1.0085     1.0085    -0.0000
 14 H      0.8704     1.0000     0.1296     1.0028     1.0028    -0.0000
 15 O      8.3074     8.0000    -0.3074     2.0126     2.0126    -0.0000
 16 H      0.8774     1.0000     0.1226     1.0706     1.0706    -0.0000
 17 H      0.8508     1.0000     0.1492     1.0125     1.0125    -0.0000

  Mayer bond orders larger than 0.100000
B(  0-N ,  2-C ) :   1.2299 B(  0-N , 13-H ) :   0.9435 B(  0-N , 14-H ) :   0.9430 
B(  1-N ,  8-C ) :   3.0023 B(  2-C ,  3-C ) :   1.2989 B(  2-C ,  4-C ) :   1.2977 
B(  3-C ,  6-C ) :   1.4098 B(  3-C ,  9-H ) :   0.9860 B(  4-C ,  7-C ) :   1.4079 
B(  4-C , 10-H ) :   0.9861 B(  5-C ,  6-C ) :   1.3490 B(  5-C ,  7-C ) :   1.3508 
B(  5-C ,  8-C ) :   1.0820 B(  6-C , 11-H ) :   0.9837 B(  7-C , 12-H ) :   0.9836 
B( 15-O , 16-H ) :   0.9814 B( 15-O , 17-H ) :   1.0005 

-------
TIMINGS
-------

Total SCF time: 0 days 0 hours 0 min 5 sec 

Total time                  ....       5.876 sec
Sum of individual times     ....       5.716 sec  ( 97.3%)

SCF preparation             ....       0.825 sec  ( 14.0%)
Fock matrix formation       ....       4.047 sec  ( 68.9%)
  Startup                   ....       0.124 sec  (  3.1% of F)
  Split-RI-J                ....       0.363 sec  (  9.0% of F)
  Chain of spheres X        ....       1.985 sec  ( 49.0% of F)
  XC integration            ....       1.350 sec  ( 33.4% of F)
    XC Preparation          ....       0.000 sec  (  0.0% of XC)
    Basis function eval.    ....       0.168 sec  ( 12.5% of XC)
    Density eval.           ....       0.069 sec  (  5.1% of XC)
    XC-Functional eval.     ....       0.041 sec  (  3.1% of XC)
    XC-Potential eval.      ....       0.096 sec  (  7.1% of XC)
Diagonalization             ....       0.000 sec  (  0.0%)
Density matrix formation    ....       0.241 sec  (  4.1%)
Total Energy calculation    ....       0.128 sec  (  2.2%)
Population analysis         ....       0.028 sec  (  0.5%)
Orbital Transformation      ....       0.046 sec  (  0.8%)
Orbital Orthonormalization  ....       0.000 sec  (  0.0%)
DIIS solution               ....       0.240 sec  (  4.1%)
SOSCF solution              ....       0.161 sec  (  2.7%)
Finished LeanSCF after   5.9 sec

Maximum memory used throughout the entire LEANSCF-calculation: 18.6 MB


-------------------------------------------------------------------------------
                          DFT DISPERSION CORRECTION                            
                                                                               
                              DFTD3 V3.1  Rev 1                                
                          USING Becke-Johnson damping                          
-------------------------------------------------------------------------------
The B3LYP functional is recognized
Active option DFTDOPT                   ...         4   

molecular C6(AA) [au] = 3763.366594 


            DFT-D V3
 parameters
 s6 scaling factor         :     1.0000 
 a1 scaling factor         :     0.3981 
 s8 scaling factor         :     1.9889 
 a2 scaling factor         :     4.4211 
 ad hoc parameters k1-k3   :    16.0000     1.3333    -4.0000 

 Edisp/kcal,au: -19.413408498687  -0.030937232393 
 E6   /kcal   :  -9.109185472 
 E8   /kcal   : -10.304223026 
 % E8         :  53.077866399 

-------------------------   ----------------
Dispersion correction           -0.030937232
-------------------------   ----------------


-------------------------   --------------------
FINAL SINGLE POINT ENERGY      -455.703531195344
-------------------------   --------------------

--------------------------------------------------------------------------
By default, for Open MPI 4.0 and later, infiniband ports on a device
are not used by default.  The intent is to use UCX for these devices.
You can override this policy by setting the btl_openib_allow_ib MCA parameter
to true.

  Local host:              psid01
  Local adapter:           mlx5_0
  Local port:              1

--------------------------------------------------------------------------
--------------------------------------------------------------------------
WARNING: There was an error initializing an OpenFabrics device.

  Local host:   psid01
  Local device: mlx5_0
--------------------------------------------------------------------------


           ************************************************************
           *        Program running with 28 parallel MPI-processes    *
           *              working on a common directory               *
           ************************************************************
------------------------------------------------------------------------------
                         ORCA SCF GRADIENT CALCULATION
------------------------------------------------------------------------------

Nuc. rep. gradient        (SHARK) ... done (  0.0 sec)
HCore & Overlap gradient  (SHARK) ... done (  0.0 sec)
Split-RIJ-J gradient      (SHARK) ... done (  0.1 sec)
COSX-gradient                     ... done (  1.0 sec)
XC gradient                       ... done (  0.2 sec)
Dispersion correction             ... done (  0.0 sec)

-------------------
DISPERSION GRADIENT
-------------------

   1   N   :    0.000570200   -0.000002924    0.000177959
   2   N   :   -0.000708036    0.000000010    0.000000565
   3   C   :    0.000359215   -0.000002008    0.000204922
   4   C   :    0.000050680   -0.000592343    0.000133101
   5   C   :    0.000049420    0.000590806    0.000136200
   6   C   :   -0.000427838   -0.000000187    0.000015030
   7   C   :   -0.000167813   -0.000543254    0.000030797
   8   C   :   -0.000168808    0.000542886    0.000031706
   9   C   :   -0.000764777   -0.000000019    0.000002520
  10   H   :    0.000075002   -0.000374559    0.000041378
  11   H   :    0.000074451    0.000374970    0.000043050
  12   H   :   -0.000078997   -0.000359793    0.000002909
  13   H   :   -0.000079160    0.000359816    0.000003049
  14   H   :    0.000287702    0.000107315    0.000101214
  15   H   :    0.000287425   -0.000107974    0.000096549
  16   O   :    0.000295468   -0.000006203   -0.000483642
  17   H   :    0.000265077    0.000001511   -0.000292154
  18   H   :    0.000080787    0.000011950   -0.000245151

Difference to translation invariance:
           :    0.0000000000    0.0000000000    0.0000000000

Difference to rotation invariance:
           :   -0.0000000000   -0.0000000000   -0.0000000000

Norm of the Dispersion gradient    ...    0.0021226909
RMS gradient                       ...    0.0002888616
MAX gradient                       ...    0.0007647767

------------------
CARTESIAN GRADIENT
------------------

   1   N   :    0.000739502   -0.000517639   -0.003730995
   2   N   :   -0.000635849   -0.000007720    0.000031719
   3   C   :    0.007443681    0.000127795   -0.004727392
   4   C   :   -0.001262575   -0.000261139    0.000397353
   5   C   :   -0.001435333    0.000419260    0.000555292
   6   C   :   -0.001117877   -0.000159429   -0.000003306
   7   C   :    0.000596426   -0.000156090    0.000252570
   8   C   :    0.000990645    0.000207191    0.000325817
   9   C   :    0.000957811   -0.000023563   -0.000052093
  10   H   :   -0.000063021   -0.000164091   -0.000028842
  11   H   :   -0.000077667    0.000002057   -0.000211285
  12   H   :   -0.000066449   -0.000034926   -0.000043159
  13   H   :   -0.000034212    0.000028972   -0.000067988
  14   H   :   -0.001504511    0.000093733   -0.000243244
  15   H   :   -0.001503463    0.000194224    0.000099368
  16   O   :    0.001594669   -0.001576712    0.006130228
  17   H   :   -0.002574885    0.001160520   -0.000299716
  18   H   :   -0.002046893    0.000667556    0.001615671

Difference to translation invariance:
           :   -0.0000000000   -0.0000000000    0.0000000000

Difference to rotation invariance:
           :   -0.0000263038    0.0000567839    0.0000194635

Norm of the Cartesian gradient     ...    0.0127947348
RMS gradient                       ...    0.0017411429
MAX gradient                       ...    0.0074436814

-------
TIMINGS
-------

Total SCF gradient time     ....        1.461 sec

Densities                   ....       0.001 sec  (  0.0%)
One electron gradient       ....       0.014 sec  (  1.0%)
RI-J Coulomb gradient       ....       0.136 sec  (  9.3%)
COSX gradient               ....       1.031 sec  ( 70.6%)
XC gradient                 ....       0.229 sec  ( 15.7%)

Maximum memory used throughout the entire SCFGRAD-calculation: 29.9 MB
[psid01:71842] 27 more processes have sent help message help-mpi-btl-openib.txt / ib port not selected
[psid01:71842] Set MCA parameter "orte_base_help_aggregate" to 0 to see all help / error messages
[psid01:71842] 27 more processes have sent help message help-mpi-btl-openib.txt / error in device init
------------------------------------------------------------------------------
                         ORCA GEOMETRY RELAXATION STEP
------------------------------------------------------------------------------

Reading the OPT-File                    .... done
Getting information on internals        .... done
Copying old internal coords+grads       .... done
Making the new internal coordinates     .... (2022 redundants) done
Validating the new internal coordinates .... (2022 redundants) done
Calculating the B-matrix                .... done
Calculating the G,G- and P matrices     .... done
Transforming gradient to internals      .... done
Projecting the internal gradient        .... done
Number of atoms                         ....  18
Number of internal coordinates          .... 123
Current Energy                          ....  -455.703531195 Eh
Current gradient norm                   ....     0.012794735 Eh/bohr
Maximum allowed component of the step   ....  0.300
Current trust radius                    ....  0.300
Evaluating the initial hessian          ....  (Almloef) done
Projecting the Hessian                  .... done
Forming the augmented Hessian           .... done
Diagonalizing the augmented Hessian     .... done
Last element of RFO vector              ....  0.962513133
Lowest eigenvalues of augmented Hessian:
 -0.001430652  0.014097959  0.023368884  0.023959187  0.024949922
Length of the computed step             ....  0.281798836
The final length of the internal step   ....  0.281798836
Converting the step to Cartesian space:
 Initial RMS(Int)=    0.0254089454
Transforming coordinates:
 Iter   0:  RMS(Cart)=    0.0330337690 RMS(Int)=    1.7912330489
done
Storing new coordinates                 .... done

                                .--------------------.
          ----------------------|Geometry convergence|-------------------------
          Item                value                   Tolerance       Converged
[...]
      dz2     :     0.010123  d :     0.143719
      dxz     :     0.030259
      dyz     :     0.013934
      dx2y2   :     0.049491
      dxy     :     0.039913

  3 C s       :     2.858484  s :     2.858484
      pz      :     1.030418  p :     3.109527
      px      :     1.053912
      py      :     1.025196
      dz2     :     0.006485  d :     0.086718
      dxz     :     0.010499
      dyz     :     0.005973
      dx2y2   :     0.028660
      dxy     :     0.035102

  4 C s       :     2.858476  s :     2.858476
      pz      :     1.031619  p :     3.110551
      px      :     1.054001
      py      :     1.024932
      dz2     :     0.006554  d :     0.086743
      dxz     :     0.010603
      dyz     :     0.005873
      dx2y2   :     0.028631
      dxy     :     0.035081

  5 C s       :     2.838902  s :     2.838902
      pz      :     1.048686  p :     3.140605
      px      :     1.014171
      py      :     1.077748
      dz2     :     0.008241  d :     0.112602
      dxz     :     0.011140
      dyz     :     0.013245
      dx2y2   :     0.043406
      dxy     :     0.036571

  6 C s       :     2.860420  s :     2.860420
      pz      :     0.938499  p :     3.028534
      px      :     1.052806
      py      :     1.037229
      dz2     :     0.006585  d :     0.091159
      dxz     :     0.014029
      dyz     :     0.007076
      dx2y2   :     0.029847
      dxy     :     0.033622

  7 C s       :     2.860408  s :     2.860408
      pz      :     0.938841  p :     3.028841
      px      :     1.052709
      py      :     1.037290
      dz2     :     0.006428  d :     0.091172
      dxz     :     0.013905
      dyz     :     0.007320
      dx2y2   :     0.029856
      dxy     :     0.033663

  8 C s       :     2.909037  s :     2.909037
      pz      :     0.940507  p :     3.011308
      px      :     1.149795
      py      :     0.921005
      dz2     :     0.010910  d :     0.109637
      dxz     :     0.037246
      dyz     :     0.000475
      dx2y2   :     0.030055
      dxy     :     0.030951

  9 H s       :     0.901891  s :     0.901891
      pz      :     0.015779  p :     0.068059
      px      :     0.017659
      py      :     0.034621

 10 H s       :     0.902776  s :     0.902776
      pz      :     0.015637  p :     0.068017
      px      :     0.017306
      py      :     0.035073

 11 H s       :     0.892965  s :     0.892965
      pz      :     0.013294  p :     0.067208
      px      :     0.018192
      py      :     0.035721

 12 H s       :     0.893126  s :     0.893126
      pz      :     0.013511  p :     0.067205
      px      :     0.018560
      py      :     0.035134

 13 H s       :     0.797684  s :     0.797684
      pz      :     0.042523  p :     0.121234
      px      :     0.028648
      py      :     0.050063

 14 H s       :     0.795953  s :     0.795953
      pz      :     0.041603  p :     0.121391
      px      :     0.029075
      py      :     0.050713

 15 O s       :     3.435550  s :     3.435550
      pz      :     1.274536  p :     4.718108
      px      :     1.574844
      py      :     1.868727
      dz2     :     0.003755  d :     0.019090
      dxz     :     0.010061
      dyz     :     0.001163
      dx2y2   :     0.003462
      dxy     :     0.000648

 16 H s       :     0.769871  s :     0.769871
      pz      :     0.057769  p :     0.193153
      px      :     0.083623
      py      :     0.051761

 17 H s       :     0.752245  s :     0.752245
      pz      :     0.073943  p :     0.176076
      px      :     0.046799
      py      :     0.055334



                      *****************************
                      * MAYER POPULATION ANALYSIS *
                      *****************************

  NA   - Mulliken gross atomic population
  ZA   - Total nuclear charge
  QA   - Mulliken gross atomic charge
  VA   - Mayer's total valence
  BVA  - Mayer's bonded valence
  FA   - Mayer's free valence

  ATOM       NA         ZA         QA         VA         BVA        FA
  0 N      7.0940     7.0000    -0.0940     3.2316     3.2316    -0.0000
  1 N      6.9506     7.0000     0.0494     3.1356     3.1356    -0.0000
  2 C      5.9208     6.0000     0.0792     4.0010     4.0010    -0.0000
  3 C      6.0198     6.0000    -0.0198     3.8078     3.8078    -0.0000
  4 C      6.0210     6.0000    -0.0210     3.8074     3.8074    -0.0000
  5 C      6.0943     6.0000    -0.0943     3.9083     3.9083    -0.0000
  6 C      5.9587     6.0000     0.0413     3.8846     3.8846    -0.0000
  7 C      5.9588     6.0000     0.0412     3.8849     3.8849    -0.0000
  8 C      6.1211     6.0000    -0.1211     4.0543     4.0543     0.0000
  9 H      1.0253     1.0000    -0.0253     0.9883     0.9883    -0.0000
 10 H      1.0272     1.0000    -0.0272     0.9880     0.9880    -0.0000
 11 H      1.0049     1.0000    -0.0049     0.9859     0.9859     0.0000
 12 H      1.0053     1.0000    -0.0053     0.9859     0.9859    -0.0000
 13 H      0.8708     1.0000     0.1292     0.9952     0.9952    -0.0000
 14 H      0.8670     1.0000     0.1330     0.9919     0.9919    -0.0000
 15 O      8.3238     8.0000    -0.3238     1.9899     1.9899    -0.0000
 16 H      0.8832     1.0000     0.1168     1.0903     1.0903     0.0000
 17 H      0.8535     1.0000     0.1465     1.0130     1.0130     0.0000

  Mayer bond orders larger than 0.100000
B(  0-N ,  2-C ) :   1.1858 B(  0-N , 13-H ) :   0.9420 B(  0-N , 14-H ) :   0.9395 
B(  0-N , 16-H ) :   0.1089 B(  1-N ,  8-C ) :   3.0052 B(  2-C ,  3-C ) :   1.3178 
B(  2-C ,  4-C ) :   1.3181 B(  3-C ,  6-C ) :   1.4002 B(  3-C ,  9-H ) :   0.9869 
B(  4-C ,  7-C ) :   1.3996 B(  4-C , 10-H ) :   0.9867 B(  5-C ,  6-C ) :   1.3552 
B(  5-C ,  7-C ) :   1.3559 B(  5-C ,  8-C ) :   1.0790 B(  6-C , 11-H ) :   0.9854 
B(  7-C , 12-H ) :   0.9853 B( 15-O , 16-H ) :   0.9661 B( 15-O , 17-H ) :   1.0049 


-------
TIMINGS
-------

Total SCF time: 0 days 0 hours 0 min 2 sec 

Total time                  ....       2.635 sec
Sum of individual times     ....       2.518 sec  ( 95.5%)

SCF preparation             ....       0.824 sec  ( 31.3%)
Fock matrix formation       ....       1.415 sec  ( 53.7%)
  Startup                   ....       0.047 sec  (  3.3% of F)
  Split-RI-J                ....       0.125 sec  (  8.8% of F)
  Chain of spheres X        ....       0.852 sec  ( 60.2% of F)
  XC integration            ....       0.341 sec  ( 24.1% of F)
    Basis function eval.    ....       0.045 sec  ( 13.3% of XC)
    Density eval.           ....       0.021 sec  (  6.2% of XC)
    XC-Functional eval.     ....       0.012 sec  (  3.4% of XC)
    XC-Potential eval.      ....       0.030 sec  (  8.9% of XC)
Diagonalization             ....       0.000 sec  (  0.0%)
Density matrix formation    ....       0.072 sec  (  2.7%)
Total Energy calculation    ....       0.023 sec  (  0.9%)
Population analysis         ....       0.069 sec  (  2.6%)
Orbital Transformation      ....       0.017 sec  (  0.6%)
Orbital Orthonormalization  ....       0.000 sec  (  0.0%)
DIIS solution               ....       0.025 sec  (  0.9%)
SOSCF solution              ....       0.074 sec  (  2.8%)
Finished LeanSCF after   2.7 sec

Maximum memory used throughout the entire LEANSCF-calculation: 20.2 MB
[psid01:80344] 27 more processes have sent help message help-mpi-btl-openib.txt / ib port not selected
[psid01:80344] Set MCA parameter "orte_base_help_aggregate" to 0 to see all help / error messages
[psid01:80344] 27 more processes have sent help message help-mpi-btl-openib.txt / error in device init


-------------------------------------------------------------------------------
                          DFT DISPERSION CORRECTION                            
                                                                               
                              DFTD3 V3.1  Rev 1                                
                          USING Becke-Johnson damping                          
-------------------------------------------------------------------------------
The B3LYP functional is recognized
Active option DFTDOPT                   ...         4   

molecular C6(AA) [au] = 3763.349946 


            DFT-D V3
 parameters
 s6 scaling factor         :     1.0000 
 a1 scaling factor         :     0.3981 
 s8 scaling factor         :     1.9889 
 a2 scaling factor         :     4.4211 
 ad hoc parameters k1-k3   :    16.0000     1.3333    -4.0000 

 Edisp/kcal,au: -18.753165261917  -0.029885067934 
 E6   /kcal   :  -8.777798019 
 E8   /kcal   :  -9.975367243 
 % E8         :  53.192978913 

-------------------------   ----------------
Dispersion correction           -0.029885068
-------------------------   ----------------


-------------------------   --------------------
FINAL SINGLE POINT ENERGY      -455.707737884312
-------------------------   --------------------

                                *** OPTIMIZATION RUN DONE ***

--------------------------------------------------------------------------
By default, for Open MPI 4.0 and later, infiniband ports on a device
are not used by default.  The intent is to use UCX for these devices.
You can override this policy by setting the btl_openib_allow_ib MCA parameter
to true.

  Local host:              psid01
  Local adapter:           mlx5_0
  Local port:              1

--------------------------------------------------------------------------
--------------------------------------------------------------------------
WARNING: There was an error initializing an OpenFabrics device.

  Local host:   psid01
  Local device: mlx5_0
--------------------------------------------------------------------------


           ************************************************************
           *        Program running with 28 parallel MPI-processes    *
           *              working on a common directory               *
           ************************************************************

------------------------------------------------------------------------------
                              ORCA PROPERTY CALCULATIONS
------------------------------------------------------------------------------

GBWName                                 ... ABN_water_2_OPT.gbw
Number of atoms                         ...     18
Number of basis functions               ...    180
Max core memory                         ...   4000 MB

Electric properties:
Dipole moment                           ... YES
Quadrupole moment                       ...  NO
Static polarizability (Dipole/Dipole)   ...  NO
Static polarizability (Dipole/Quad.)    ...  NO
Static polarizability (Quad./Quad.)     ...  NO
Static polarizability (Velocity)        ...  NO

Atomic electric properties:
Dipole moment                           ...  NO
Quadrupole moment                       ...  NO
Static polarizability                   ...  NO

Choice of electric origin               ... Center of mass
Position of electric origin             ...     1.029108    -0.002531    -0.593365

General magnetic properties:
Magnetizability                         ...  NO

EPR properties:
g-Tensor (aka g-matrix)                 ...  NO
Zero-Field splitting spin-orbit         ...  NO
Zero-field splitting spin-spin          ...  NO
Hyperfine couplings                     ...  NO (   0 nuclei)
Quadrupole couplings                    ...  NO (   0 nuclei)
Contact density                         ...  NO (   0 nuclei)

NMR properties:
Chemical shifts                         ...  NO (   0 nuclei)
Spin-rotation constants                 ...  NO (   0 nuclei)
Spin-spin couplings                     ...  NO (   0 nuclei,    0 pairs)

Choice of magnetic origin               ... GIAO
Position of magnetic origin             ...     0.000000     0.000000     0.000000

Properties with geometric perturbations:
SCF Hessian                             ...  NO
IR spectrum                             ...  NO
VCD spectrum                            ...  NO
X-ray spectroscopy properties:
SCF XES/XAS/RIXS spectra                ...  NO


-------------
DIPOLE MOMENT
-------------

Method             : SCF
Type of density    : Electron Density
Multiplicity       :   1
Irrep              :   0
Energy             :  -455.6778528163785040 Eh
Relativity type    : 
Basis              : AO
                                X                 Y                 Z
Electronic contribution:    -10.008758304      -0.025252066       3.330407461
Nuclear contribution   :     11.563106310       0.213326256      -3.228463043
                        -----------------------------------------
Total Dipole Moment    :      1.554348006       0.188074190       0.101944418
                        -----------------------------------------
Magnitude (a.u.)       :      1.569000411
Magnitude (Debye)      :      3.988082106



--------------------
Rotational spectrum 
--------------------
 
Rotational constants in cm-1:             0.124424             0.016934             0.016166 
Rotational constants in MHz :          3730.140358           507.669066           484.631672 

Dipole components along the rotational axes: 
x,y,z [a.u.] :    -1.442284    -0.253490     0.563313 
x,y,z [Debye]:    -3.665995    -0.644320     1.431827 

 

Dipole moment calculation done in   0.0 sec 

Maximum memory used throughout the entire PROP-calculation: 10.2 MB
[psid01:80434] 27 more processes have sent help message help-mpi-btl-openib.txt / ib port not selected
[psid01:80434] Set MCA parameter "orte_base_help_aggregate" to 0 to see all help / error messages
[psid01:80434] 27 more processes have sent help message help-mpi-btl-openib.txt / error in device init
--------------------------------------------------------------------------
By default, for Open MPI 4.0 and later, infiniband ports on a device
are not used by default.  The intent is to use UCX for these devices.
You can override this policy by setting the btl_openib_allow_ib MCA parameter
to true.

  Local host:              psid01
  Local adapter:           mlx5_0
  Local port:              1

--------------------------------------------------------------------------
--------------------------------------------------------------------------
WARNING: There was an error initializing an OpenFabrics device.

  Local host:   psid01
  Local device: mlx5_0
--------------------------------------------------------------------------
[psid01:80523] 27 more processes have sent help message help-mpi-btl-openib.txt / ib port not selected
[psid01:80523] Set MCA parameter "orte_base_help_aggregate" to 0 to see all help / error messages
[psid01:80523] 27 more processes have sent help message help-mpi-btl-openib.txt / error in device init

--------------------------------
SUGGESTED CITATIONS FOR THIS RUN
--------------------------------

Below you find a list of papers that are relevant to this ORCA run
We neither can nor want to force you to cite these papers, but we appreciate if you do
You receive ORCA, which is the product of decades of hard work by many enthusiastic individuals, for free
The only thing we kindly ask in return is that you cite our papers,
We deeply appreciate it, if you show your appreciation for ORCA by not just citing the generic ORCA reference.

Please note that relegating all ORCA citations to the supporting information does *not* help us.
SI sections are not indexed - citations you put there will not count into any citation statistics
But we need these citations in order to attract the funding resources that allow us to do what we are doing

Therefore, if you are a happy ORCA user, please consider citing a few of the papers listed below in the main body of your paper

In addition to the list printed below, the program has created the file ABN_water_2_OPT.bibtex that contains the list in bibtex format
You can import this file easily into all common literature databanks and citation aid programs


List of essential papers. We consider these as the minimum necessary citations

  1. Neese,F.
     Software update: the ORCA program system, version 5.0
     WIRES Comput. Molec. Sci., 2022 12(1)e1606
     doi.org/10.1002/wcms.1606

List of papers to cite with high priority. The work reported in these papers was absolutely
necessary for this run to complete.
Our perspective: the developers of density functionals and basis sets usually get cited in chemistry papers
Good! But without the algorithms to do something with them, the functionals or basis sets would not do anything.
Hence, in our opinion, the algorithm design and method developments papers are equally worthy of getting cited

  1. Neese,F.
     An improvement of the resolution of the identity approximation for the formation of the Coulomb matrix
     J. Comp. Chem., 2003 24(14)1740-1747
     doi.org/10.1002/jcc.10318
  2. Neese,F.; Wennmohs,F.; Hansen,A.; Becker,U.
     Efficient, approximate and parallel Hartree-Fock and hybrid DFT calculations. A 'chain-of-spheres' algorithm for the Hartree-Fock exchange
     Chem. Phys., 2009 356(1-3)98-109
     doi.org/10.1016/j.chemphys.2008.10.036
  3. Helmich-Paris,B.; de Souza,B.; Neese,F.; Izsák,R.
     An improved chain of spheres for exchange algorithm
     J. Chem. Phys., 2021 155 104109
     doi.org/doi: 10.1063/5.0058766.
  4. Neese,F.
     The SHARK Integral Generation and Digestion System
     J. Comp. Chem., 2022  1-16
     doi.org/10.1002/jcc.26942
  5. Grimme,S.; Antony,J.; Ehrlich,S.; Krieg,H.
     A consistent and accurate ab initio parametrization of density functional dispersion correction (DFT-D) for the 94 elements H-Pu
     J. Chem. Phys., 2010 132 154104
     doi.org/10.1063/1.3382344
  6. Grimme,S.; Ehrlich,S.; Goerigk,L.
     Effect of the damping function in dispersion corrected density functional theory
     J. Comput. Chem., 2011 32(7)1456-1465
     doi.org/10.1002/jcc.21759

List of suggested additional citations. These are papers that are important in the 'surrounding' of 
of this run, or papers that preceded the highly important papers. If you like your results we are grateful for a citation.

  1. Izsak,R.; Neese,F.
     An overlap fitted chain of spheres exchange method
     J. Chem. Phys., 2011 135 144105
     doi.org/10.1063/1.3646921
  2. Izsak,R.; Hansen,A.; Neese,F.
     The resolution of identity and chain of spheres approximations for the LPNO-CCSD singles Fock term
     Molec. Phys., 2012 110 2413-2417
     doi.org/10.1080/00268976.2012.687466
  3. Neese,F.
     The ORCA program system
     WIRES Comput. Molec. Sci., 2012 2(1)73-78
     doi.org/10.1002/wcms.81
  4. Izsak,R.; Neese,F.; Klopper,W.
     Robust fitting techniques in the chain of spheres approximation to the Fock exchange: The role of the complementary space
     J. Chem. Phys., 2013 139 
     doi.org/10.1063/1.4819264
  5. Neese,F.
     Software update: the ORCA program system, version 4.0
     WIRES Comput. Molec. Sci., 2018 8(1)1-6
     doi.org/10.1002/wcms.1327
  6. Neese,F.; Wennmohs,F.; Becker,U.; Riplinger,C.
     The ORCA quantum chemistry program package
     J. Chem. Phys., 2020 152 Art. No. L224108
     doi.org/10.1063/5.0004608

List of optional additional citations

  1. Neese,F.
     Approximate second-order SCF convergence for spin unrestricted wavefunctions
     Chem. Phys. Lett., 2000 325(1-3)93-98
     doi.org/10.1016/s0009-2614(00)00662-x

Timings for individual modules:

Sum of individual times          ...      178.613 sec (=   2.977 min)
Startup calculation              ...       34.331 sec (=   0.572 min)  19.2 %
SCF iterations                   ...      100.811 sec (=   1.680 min)  56.4 %
Property calculations            ...        0.859 sec (=   0.014 min)   0.5 %
SCF Gradient evaluation          ...       42.393 sec (=   0.707 min)  23.7 %
Geometry relaxation              ...        0.218 sec (=   0.004 min)   0.1 %
                             ****ORCA TERMINATED NORMALLY****
TOTAL RUN TIME: 0 days 0 hours 3 minutes 25 seconds 932 msec
