
                                 *****************
                                 * O   R   C   A *
                                 *****************

                                            #,                                       
                                            ###                                      
                                            ####                                     
                                            #####                                    
                                            ######                                   
                                           ########,                                 
                                     ,,################,,,,,                         
                               ,,#################################,,                 
                          ,,##########################################,,             
                       ,#########################################, ''#####,          
                    ,#############################################,,   '####,        
                  ,##################################################,,,,####,       
                ,###########''''           ''''###############################       
              ,#####''   ,,,,##########,,,,          '''####'''          '####       
            ,##' ,,,,###########################,,,                        '##       
           ' ,,###''''                  '''############,,,                           
         ,,##''                                '''############,,,,        ,,,,,,###''
      ,#''                                            '''#######################'''  
     '                                                          ''''####''''         
             ,#######,   #######,   ,#######,      ##                                
            ,#'     '#,  ##    ##  ,#'     '#,    #''#        ,####,   ,####,        
            ##       ##  ##   ,#'  ##            #'  '#       #'       #'  '#        
            ##       ##  #######   ##           ,######,      #####,   #    #        
            '#,     ,#'  ##    ##  '#,     ,#' ,#      #,     #,   #   #,  ,#        
             '#######'   ##     ##  '#######'  #'      '#     '####' # '####'        



                #########################################################
                #                        -***-                          #
                #          Department of theory and spectroscopy        #
                #                                                       #
                #                      Frank Neese                      #
                #                                                       #
                #     Directorship, Architecture, Infrastructure        #
                #                    SHARK, DRIVERS                     #
                #        Core code/Algorithms in most modules           #
                #                                                       #
                #        Max Planck Institute fuer Kohlenforschung      #
                #                Kaiser Wilhelm Platz 1                 #
                #                 D-45470 Muelheim/Ruhr                 #
                #                      Germany                          #
                #                                                       #
                #                  All rights reserved                  #
                #                        -***-                          #
                #########################################################


                         Program Version 6.0.1  -  RELEASE   -


 With contributions from (in alphabetic order):
[Max-Planck-Institut fuer Kohlenforschung]                               
  Daniel Aravena         : Magnetic Suceptibility                        
  Michael Atanasov       : Ab Initio Ligand Field Theory (pilot matlab implementation)
  Alexander A. Auer      : GIAO ZORA, VPT2 properties, NMR spectrum      
  Ute Becker             : All parallelization in ORCA, NUMFREQ, NUMCALC 
  Giovanni Bistoni       : ED, misc. LED, open-shell LED, HFLD           
  Martin Brehm           : Molecular dynamics                            
  Dmytro Bykov           : pre 5.0 version of the SCF Hessian            
  Marcos Casanova-Páez   : Triplet and SCS-CIS(D). UHF-(DLPNO)-IP/EA/STEOM-CCSD. UHF-CVS-IP/STEOM-CCSD   
  Vijay G. Chilkuri      : MRCI spin determinant printing, contributions to CSF-ICE 
  Pauline Colinet        : FMM embedding                                 
  Dipayan Datta          : RHF DLPNO-CCSD density                        
  Achintya Kumar Dutta   : EOM-CC, STEOM-CC                              
  Nicolas Foglia         : Exact transition moments, OPA infrastructure, MCD improvements    
  Dmitry Ganyushin       : Spin-Orbit,Spin-Spin,Magnetic field MRCI      
  Miquel Garcia-Rates    : C-PCM and meta-GGA Hessian, CCSD/C-PCM, Gaussian charge scheme 
  Tiago L. C. Gouveia    : GS-ROHF, GS-ROCIS                             
  Yang Guo               : DLPNO-NEVPT2, F12-NEVPT2, CIM, IAO-localization        
  Andreas Hansen         : Spin unrestricted coupled pair/coupled cluster methods 
  Ingolf Harden          : AUTO-CI MPn and infrastructure                
  Benjamin Helmich-Paris : MC-RPA, TRAH-(SCF,CASSCF), AVAS, COSX integrals, SCF dyn. polar. 
  Lee Huntington         : MR-EOM, pCC                                   
  Robert Izsak           : Overlap fitted RIJCOSX, COSX-SCS-MP3, EOM     
  Riya Kayal             : Wick's Theorem for AUTO-CI, AUTO-CI UHF-CCSDT 
  Emily Kempfer          : AUTO-CI, RHF CISDT and CCSDT                  
  Christian Kollmar      : KDIIS, OOCD, Brueckner-CCSD(T), CCSD density, CASPT2, CASPT2-K, improved NEVPT2 
  Axel Koslowski         : Symmetry handling                             
  Simone Kossmann        : meta-GGA functionals, TD-DFT gradient, OOMP2, (MP2 Hessian; deprecated post 5.0) 
  Lucas Lang             : DCDCAS                                        
  Marvin Lechner         : AUTO-CI (C++ implementation), FIC-MRCC        
  Spencer Leger          : CASSCF response                               
  Dagmar Lenk            : GEPOL surface, SMD, ORCA-2-JSON               
  Dimitrios Liakos       : Extrapolation schemes; Compound Job, initial MDCI parallelization 
  Dimitrios Manganas     : Further ROCIS development; embedding schemes. LFT, Crystal Embedding 
  Dimitrios Pantazis     : SARC Basis sets                               
  Anastasios Papadopoulos: AUTO-CI, single reference methods and gradients 
  Taras Petrenko         : pre 6.0 DFT Hessian and TD-DFT gradient, (ASA, deprecated), ECA, 1-Electron XAS/XES, NRVS 
  Peter Pinski           : DLPNO-MP2, DLPNO-MP2 Gradient                 
  Christoph Reimann      : Effective Core Potentials                     
  Marius Retegan         : Local ZFS, SOC                                
  Christoph Riplinger    : Optimizer, TS searches, QM/MM, DLPNO-CCSD(T), (RO)-DLPNO pert. Triples 
  Michael Roemelt        : Original ROCIS implementation                 
  Masaaki Saitow         : Open-shell DLPNO-CCSD energy and density      
  Barbara Sandhoefer     : DKH picture change effects                    
  Kantharuban Sivalingam : CASSCF convergence/infrastructure, NEVPT2 and variants, FIC-MRCI 
  Bernardo de Souza      : ESD, SOC TD-DFT                               
  Georgi L. Stoychev     : AutoAux, RI-MP2 NMR, DLPNO-MP2 response, X2C  
  Van Anh Tran           : RI-MP2 g-tensors                              
  Willem Van den Heuvel  : Paramagnetic NMR                              
  Zikuan Wang            : NOTCH, Electric field optimization            
  Frank Wennmohs         : Technical directorship and infrastructure     
  Hang Xu                : AUTO-CI-Response properties                   
                                                                         
[FACCTs GmbH]                                                            
  Markus Bursch, Miquel Garcia-Rates, Christoph Riplinger, Bernardo de Souza, Georgi L. Stoychev 
                                                                 
  APM, Basis sets (HGBS, AHGBS, def-TZVP (Ac-Lr), def2-XVPD (La-Lu)), CI-OPT, improved COSX, DLPNO-Multilevel,           
  DOCKER, DRACO, updates on ESD, GOAT, IRC, LR-CPCM, MBIS, meta-GGA TD-DFT gradient, ML-optimized integration grids, 
  MM, NACMEs, nearIR, NEB, NEB-TS, NL-DFT gradient (VV10), 2- and 3-layer-ONIOM, interface openCOSMO-RS, QMMM,   
  Crystal-QMMM, SF, symmetry and pop. for TD-DFT, r2SCAN hybrids, SOLVATOR                                   
                                                                         
[Other institutions]                                                     
  V. Asgeirsson          : NEB                                           
  Christoph Bannwarth    : sTDA-DFT, sTD-DFT, PBEh-3c, B97-3c, D3        
  Sebastian Ehlert       : rSCAN, r2SCAN, r2SCAN-3c, D4, dhf basis sets  
  Marvin Friede          : D4 for Fr, Ra, Ac-Lr                          
  Lars Goerigk           : TD-DFT with DH, B97 family of functionals     
  Stefan Grimme          : VdW corrections, initial TS optimization, DFT functionals, gCP, sTDA/sTD-DF 
  Waldemar Hujo          : DFT-NL                                        
  H. Jonsson             : NEB                                           
  Holger Kruse           : gCP                                           
  Marcel Mueller         : wB97X-3c, vDZP basis set                      
  Hagen Neugebauer       : wr2SCAN                                       
  Tobias Risthaus        : range-separated hybrid DFT                    
  Lukas Wittmann         : regularized MP2, r2SCAN double-hybrids, wr2SCAN        
                                                                         
We gratefully acknowledge several colleagues who have allowed us to      
interface, adapt or use parts of their codes:                            
  Ed Valeev, F. Pavosevic, A. Kumar             : LibInt (2-el integral package), F12 methods 
  Garnet Chan, S. Sharma, J. Yang, R. Olivares  : DMRG                   
  Ulf Ekstrom                                   : XCFun DFT Library      
  Mihaly Kallay                                 : mrcc  (arbitrary order and MRCC methods)
  Frank Weinhold                                : gennbo (NPA and NBO analysis)           
  Simon Mueller                                 : openCOSMO-RS                            
  Christopher J. Cramer and Donald G. Truhlar   : smd solvation model                     
  S Lehtola, MJT Oliveira, MAL Marques          : LibXC Library                           
  Liviu Ungur et al                             : ANISO software                          


 Your calculation uses the libint2 library for the computation of 2-el integrals
 For citations please refer to: http://libint.valeyev.net

 Your ORCA version has been built with support for libXC version: 6.2.2
 For citations please refer to: https://libxc.gitlab.io

 This ORCA versions uses:
   CBLAS   interface :  Fast vector & matrix operations
   LAPACKE interface :  Fast linear algebra routines
   SCALAPACK package :  Parallel linear algebra routines
   Shared memory     :  Shared parallel matrices
   BLAS/LAPACK       :  OpenBLAS 0.3.27  USE64BITINT DYNAMIC_ARCH NO_AFFINITY SkylakeX SINGLE_THREADED
        Core in use  :  SkylakeX
   Copyright (c) 2011-2014, The OpenBLAS Project


NOTE: MaxCore=5000 MB was set to SCF,MP2,MDCI,CIPSI,MRCI and CIS
      => If you want to overwrite this, your respective input block should be placed after the MaxCore statement
Your calculation utilizes the atom-pairwise dispersion correction
with the zero-damping scheme (D30)


XCFun DFT library Copyright 2009-2010 Ulf Ekstrom and contributors.
See http://admol.org/xcfun for more information.
This is free software; see the source code for copying conditions.
There is ABSOLUTELY NO WARRANTY; not even for MERCHANTABILITY or FITNESS FOR A PARTICULAR PURPOSE.
For details see the documentation.
Scientific users of this library should cite U. Ekstrom, L. Visscher, R. Bast, A. J. Thorvaldsen and K. Ruud;
J.Chem.Theor.Comp. 2010, DOI: 10.1021/ct100117s
XCFun Version 0.99 

Warning: RI is on but no J-basis has been assigned. Assigning Def2/J (nothing to worry about!)
================================================================================

----- Orbital basis set information -----
Your calculation utilizes the basis: def2-SVP
   F. Weigend and R. Ahlrichs, Phys. Chem. Chem. Phys. 7, 3297 (2005).

----- AuxJ basis set information -----
Your calculation utilizes the auxiliary basis: def2/J
   F. Weigend, Phys. Chem. Chem. Phys. 8, 1057 (2006).

================================================================================
                                        WARNINGS
                       Please study these warnings very carefully!
================================================================================

WARNING: Old DensityContainer found on disk!
         Will remove this file - 
         If you want to keep old densities, please start your calculation with a different basename. 


WARNING: Gradients are needed
  ===> : At least TightSCF should be used for SCF convergence

WARNING: Geometry Optimization
  ===> : Switching off AutoStart
         For restart on a previous wavefunction, please use MOREAD

WARNING: TRAH does not support fractional occupations!
  ===> : Turning TRAH off

WARNING: Smearing is incompatible with SOSCF, disabling SOSCF
================================================================================
                                       INPUT FILE
================================================================================
NAME = c60malonicester.inp
|  1> ! wB97X-D3 def2-SVP OPT NormalSCF
|  2> 
|  3> %pal
|  4> nprocs 28
|  5> end
|  6> 
|  7> %maxcore 5000
|  8> 
|  9> %scf
| 10>  SmearTemp 500 
| 11> end
| 12> 
| 13> * xyz 0 1
| 14>    C        3.36385       -1.99584        0.38646
| 15>    C        3.66055       -0.57285        0.43521
| 16>    C        3.24083        0.19236        1.52993
| 17>    C        2.65579       -2.60009        1.43242
| 18>    C        3.06154       -2.34719       -0.99412
| 19>    C        3.52891       -0.04432       -0.91554
| 20>    C        2.68634        1.51935        1.31924
| 21>    C        2.49219       -0.43431        2.60563
| 22>    C        1.61945       -3.57839        1.13966
| 23>    C        2.20962       -1.80097        2.56343
| 24>    C        2.06732       -3.28952       -1.27468
| 25>    C        3.16250       -1.13814       -1.79683
| 26>    C        2.96525        1.21888       -1.11221
| 27>    C        1.58281        1.70918        2.24615
| 28>    C        2.55208        2.00833        0.02176
| 29>    C        1.46576        0.50539        3.03265
| 30>    C        1.33369       -3.91928       -0.18663
| 31>    C        0.53446       -3.38568        2.09143
| 32>    C        0.89500       -2.28044        2.96586
| 33>    C        1.13794       -3.06222       -2.37168
| 34>    C        2.25990       -0.90971       -2.83933
| 35>    C        2.00935        1.46506       -2.17527
| 36>    C        0.46725        2.47722        1.87801
| 37>    C        1.41956        2.82563       -0.34340
| 38>    C        0.20174        0.05572        3.39970
| 39>    C       -0.04719       -4.08725       -0.61375
| 40>    C       -0.79306       -3.54695        1.68045
| 41>    C       -0.08459       -1.37201        3.38264
| 42>    C       -0.16724       -3.56163       -1.96546
| 43>    C        1.23252       -1.89436       -3.13820
| 44>    C        1.68026        0.41383       -3.03167
| 45>    C        1.00726        2.43337       -1.70273
| 46>    C        0.57561        3.29583        0.66903
| 47>    C       -0.88661        1.96651        2.18929
| 48>    C       -0.98028        0.78308        2.96108
| 49>    C       -1.08994       -3.90896        0.30161
| 50>    C       -1.81255       -2.61139        2.12910
| 51>    C       -1.45957       -1.53957        2.95751
| 52>    C       -1.32709       -2.88258       -2.35126
| 53>    C        0.02672       -1.18089       -3.52921
| 54>    C        0.30692        0.24734       -3.45636
| 55>    C       -0.33714        2.27445       -2.12066
| 56>    C       -1.50375        3.04089        0.03062
| 57>    C       -1.90782        2.18383        1.14331
| 58>    C       -2.01310       -0.21479        2.71689
| 59>    C       -2.29807       -3.20460       -0.09952
| 60>    C       -2.74662       -2.40642        1.03166
| 61>    C       -2.41515       -2.70096       -1.40056
| 62>    C       -1.22687       -1.67322       -3.15453
| 63>    C       -0.66507        1.14123       -3.00315
| 64>    C       -1.51406        2.47096       -1.24894
| 65>    C       -2.83732        1.16909        0.87888
| 66>    C       -2.91733       -0.03068        1.67699
| 67>    C       -3.29656       -1.14096        0.81622
| 68>    C       -2.99147       -1.38385       -1.62202
| 69>    C       -2.25031       -0.74901       -2.70222
| 70>    C       -1.96738        0.61833       -2.63686
| 71>    C       -2.44353        1.40100       -1.52375
| 72>    C       -3.16361        0.80567       -0.48959
| 73>    C       -3.43391       -0.62162       -0.53423
| 74>    H        1.01079        5.70594        4.39439
| 75>    C       -0.02502        6.07921        4.37886
| 76>    H       -0.14197        6.80711        5.19798
| 77>    H        0.31794        7.60819        2.86708
| 78>    C       -0.34142        6.74847        3.05268
| 79>    O       -0.09377        5.86121        1.93801
| 80>    H       -0.70881        5.23855        4.56885
| 81>    C       -1.06593        5.01385        1.58305
| 82>    C       -0.59369        4.18199        0.36495
| 83>    O       -2.14368        4.93390        2.10853
| 84>    H       -1.38979        7.07988        3.01259
| 85>    C       -0.37576        5.20146       -0.77482
| 86>    H       -3.62271        6.46433       -2.59559
| 87>    O       -1.54600        5.77178       -1.08241
| 88>    H       -1.12736        6.33894       -3.03390
| 89>    O        0.67586        5.47844       -1.28485
| 90>    C       -1.53396        6.78416       -2.11160
| 91>    C       -2.95187        7.28288       -2.29224
| 92>    H       -2.97708        8.05869       -3.07354
| 93>    H       -3.33996        7.71875       -1.35860
| 94>    H       -0.84376        7.58709       -1.80568
| 95> *
| 96> 
| 97> 
| 98>                          ****END OF INPUT****
================================================================================

                       *****************************
                       * Geometry Optimization Run *
                       *****************************

Geometry optimization settings:
Update method            Update   .... BFGS
Choice of coordinates    CoordSys .... (2022) Redundant Internals
Initial Hessian          InHess   .... Almloef's Model
Max. no of cycles        MaxIter  .... 243

Convergence Tolerances:
Energy Change            TolE     ....  5.0000e-06 Eh
Max. Gradient            TolMAXG  ....  3.0000e-04 Eh/bohr
RMS Gradient             TolRMSG  ....  1.0000e-04 Eh/bohr
Max. Displacement        TolMAXD  ....  4.0000e-03 bohr
RMS Displacement         TolRMSD  ....  2.0000e-03 bohr
Strict Convergence                .... False

------------------------------------------------------------------------------
                        ORCA OPTIMIZATION COORDINATE SETUP
------------------------------------------------------------------------------

The optimization will be done in redundant internal coordinates (2022)
Making redundant internal coordinates   ...  (2022 redundants) done
Evaluating the initial hessian          ...  (Almloef) done
Evaluating the coordinates              ...  done
Calculating the B-matrix                .... done
Calculating the G-matrix                .... done
Diagonalizing the G-matrix              .... done
Small eigenvalue found = 2.512e-03
Small eigenvalue found = 4.596e-03
Small eigenvalue found = 5.534e-03
Small eigenvalue found = 6.137e-03
Small eigenvalue found = 2.370e-02
Small eigenvalue found = 2.758e-02
Small eigenvalue found = 2.953e-02
The first mode is                       ....  490
The number of degrees of freedom        ....  237

    -----------------------------------------------------------------
                    Redundant Internal Coordinates


    -----------------------------------------------------------------
         Definition                    Initial Value    Approx d2E/dq
    -----------------------------------------------------------------
      1. B(C   1,C   0)                  1.4544         0.493147   
      2. B(C   2,C   1)                  1.4000         0.602163   
      3. B(C   3,C   0)                  1.4002         0.601866   
      4. B(C   4,C   0)                  1.4563         0.489717   
      5. B(C   5,C   1)                  1.4564         0.489495   
      6. B(C   6,C   2)                  1.4535         0.494742   
      7. B(C   7,C   2)                  1.4527         0.496273   
      8. B(C   8,C   3)                  1.4549         0.492232   
      9. B(C   9,C   3)                  1.4549         0.492192   
     10. B(C   9,C   7)                  1.3962         0.610717   
     11. B(C  10,C   4)                  1.3983         0.606089   
     12. B(C  11,C   5)                  1.4517         0.498120   
     13. B(C  11,C   4)                  1.4548         0.492506   
     14. B(C  12,C   5)                  1.3972         0.608569   
     15. B(C  13,C   6)                  1.4536         0.494602   
     16. B(C  14,C  12)                  1.4422         0.515844   
     17. B(C  14,C   6)                  1.3930         0.617840   
     18. B(C  15,C  13)                  1.4427         0.514818   
     19. B(C  15,C   7)                  1.4557         0.490891   
     20. B(C  16,C  10)                  1.4556         0.491063   
     21. B(C  16,C   8)                  1.3989         0.604708   
     22. B(C  17,C   8)                  1.4561         0.490108   
     23. B(C  18,C  17)                  1.4547         0.492609   
     24. B(C  18,C   9)                  1.4560         0.490194   
     25. B(C  19,C  10)                  1.4556         0.490965   
     26. B(C  20,C  11)                  1.3977         0.607284   
     27. B(C  21,C  12)                  1.4507         0.499968   
     28. B(C  22,C  13)                  1.4035         0.594508   
     29. B(C  23,C  14)                  1.4436         0.513163   
     30. B(C  24,C  15)                  1.3909         0.622674   
     31. B(C  25,C  16)                  1.4552         0.491800   
     32. B(C  26,C  17)                  1.3990         0.604460   
     33. B(C  27,C  24)                  1.4563         0.489810   
     34. B(C  27,C  18)                  1.3995         0.603410   
     35. B(C  28,C  25)                  1.4553         0.491593   
     36. B(C  28,C  19)                  1.4553         0.491524   
     37. B(C  29,C  20)                  1.4541         0.493733   
     38. B(C  29,C  19)                  1.4001         0.601948   
     39. B(C  30,C  21)                  1.3953         0.612795   
     40. B(C  30,C  20)                  1.4576         0.487317   
     41. B(C  31,C  23)                  1.4736         0.459499   
     42. B(C  31,C  21)                  1.4714         0.463259   
     43. B(C  32,C  23)                  1.3994         0.603562   
     44. B(C  32,C  22)                  1.4641         0.475956   
     45. B(C  33,C  22)                  1.4801         0.448757   
     46. B(C  34,C  33)                  1.4160         0.567966   
     47. B(C  34,C  24)                  1.4555         0.491095   
     48. B(C  35,C  26)                  1.4562         0.489995   
     49. B(C  35,C  25)                  1.3989         0.604637   
     50. B(C  36,C  26)                  1.4546         0.492767   
     51. B(C  37,C  36)                  1.3999         0.602532   
     52. B(C  37,C  27)                  1.4489         0.503186   
     53. B(C  38,C  28)                  1.3983         0.606065   
     54. B(C  39,C  29)                  1.4546         0.492790   
     55. B(C  40,C  39)                  1.4573         0.487978   
     56. B(C  40,C  30)                  1.4471         0.506541   
     57. B(C  41,C  31)                  1.4168         0.566207   
     58. B(C  43,C  42)                  1.4615         0.480516   
     59. B(C  43,C  33)                  1.4779         0.452385   
     60. B(C  44,C  37)                  1.4558         0.490647   
     61. B(C  44,C  34)                  1.4567         0.488945   
     62. B(C  45,C  35)                  1.4549         0.492340   
     63. B(C  46,C  36)                  1.4556         0.490932   
     64. B(C  46,C  45)                  1.4553         0.491563   
     65. B(C  47,C  45)                  1.4000         0.602208   
     66. B(C  47,C  38)                  1.4563         0.489808   
     67. B(C  48,C  39)                  1.3979         0.606815   
     68. B(C  48,C  38)                  1.4553         0.491574   
     69. B(C  49,C  41)                  1.4733         0.460142   
     70. B(C  49,C  40)                  1.3961         0.610864   
     71. B(C  50,C  42)                  1.4008         0.600525   
     72. B(C  50,C  41)                  1.4777         0.452678   
     73. B(C  51,C  43)                  1.4013         0.599431   
     74. B(C  52,C  51)                  1.4432         0.513878   
     75. B(C  52,C  44)                  1.3903         0.624120   
     76. B(C  53,C  52)                  1.4552         0.491808   
     77. B(C  53,C  46)                  1.3965         0.610034   
     78. B(C  54,C  47)                  1.4546         0.492737   
     79. B(C  55,C  54)                  1.4557         0.490748   
     80. B(C  55,C  48)                  1.4513         0.498873   
     81. B(C  56,C  55)                  1.3978         0.607072   
     82. B(C  56,C  49)                  1.4504         0.500501   
     83. B(C  57,C  56)                  1.4416         0.516847   
     84. B(C  57,C  50)                  1.4437         0.512950   
     85. B(C  58,C  57)                  1.3937         0.616345   
     86. B(C  58,C  51)                  1.4530         0.495683   
     87. B(C  59,C  58)                  1.4533         0.495080   
     88. B(C  59,C  54)                  1.4000         0.602233   
     89. B(C  59,C  53)                  1.4534         0.495029   
     90. B(C  61,H  60)                  1.1011         0.345681   
     91. B(H  62,C  61)                  1.1020         0.344531   
     92. B(C  64,H  63)                  1.0992         0.348086   
     93. B(C  64,C  61)                  1.5188         0.389257   
     94. B(O  65,C  64)                  1.4460         0.455467   
     95. B(H  66,C  61)                  1.1002         0.346894   
     96. B(C  67,O  65)                  1.3376         0.678444   
     97. B(C  68,C  67)                  1.5488         0.348650   
     98. B(C  68,C  42)                  1.4974         0.421161   
     99. B(C  68,C  32)                  1.4983         0.419660   
    100. B(O  69,C  67)                  1.2017         1.117653   
    101. B(H  70,C  64)                  1.1002         0.346810   
    102. B(C  71,C  68)                  1.5446         0.354024   
    103. B(O  73,C  71)                  1.3377         0.678232   
    104. B(O  75,C  71)                  1.2011         1.119899   
    105. B(C  76,H  74)                  1.1019         0.344698   
    106. B(C  76,O  73)                  1.4437         0.459398   
    107. B(C  77,C  76)                  1.5139         0.396371   
    108. B(C  77,H  72)                  1.1009         0.345913   
    109. B(H  78,C  77)                  1.1013         0.345409   
    110. B(H  79,C  77)                  1.1010         0.345793   
    111. B(H  80,C  76)                  1.1021         0.344424   
    112. A(C   1,C   0,C   4)          108.0696         0.399608   
    113. A(C   1,C   0,C   3)          120.0233         0.414449   
    114. A(C   3,C   0,C   4)          119.9393         0.413935   
    115. A(C   0,C   1,C   2)          119.9871         0.414485   
    116. A(C   0,C   1,C   5)          107.7900         0.399577   
    117. A(C   2,C   1,C   5)          119.9828         0.413938   
    118. A(C   1,C   2,C   6)          120.0002         0.414723   
    119. A(C   1,C   2,C   7)          119.8492         0.414951   
    120. A(C   6,C   2,C   7)          107.7324         0.400773   
    121. A(C   0,C   3,C   9)          119.9173         0.414306   
    122. A(C   0,C   3,C   8)          120.0046         0.414312   
    123. A(C   8,C   3,C   9)          107.8970         0.399832   
    124. A(C  10,C   4,C  11)          119.9159         0.414868   
    125. A(C   0,C   4,C  11)          107.9490         0.399517   
    126. A(C   0,C   4,C  10)          120.0268         0.414450   
    127. A(C   1,C   5,C  12)          119.6771         0.414717   
    128. A(C   1,C   5,C  11)          108.2045         0.400283   
    129. A(C  11,C   5,C  12)          119.6010         0.416008   
    130. A(C   2,C   6,C  14)          119.4872         0.416624   
    131. A(C   2,C   6,C  13)          108.4453         0.400535   
    132. A(C  13,C   6,C  14)          118.3534         0.416603   
    133. A(C   9,C   7,C  15)          119.8710         0.415187   
    134. A(C   2,C   7,C   9)          120.2766         0.415994   
    135. A(C   2,C   7,C  15)          107.5856         0.400222   
    136. A(C   3,C   8,C  17)          108.0740         0.399534   
    137. A(C   3,C   8,C  16)          120.0092         0.414659   
    138. A(C  16,C   8,C  17)          119.9840         0.414341   
    139. A(C   3,C   9,C  18)          108.1110         0.399541   
    140. A(C   3,C   9,C   7)          119.9376         0.415383   
    141. A(C   7,C   9,C  18)          119.7820         0.415083   
    142. A(C   4,C  10,C  16)          119.9977         0.414652   
    143. A(C  16,C  10,C  19)          108.0053         0.399490   
    144. A(C   4,C  10,C  19)          119.9972         0.414637   
    145. A(C   4,C  11,C   5)          107.9845         0.400715   
    146. A(C   5,C  11,C  20)          119.5144         0.415851   
    147. A(C   4,C  11,C  20)          120.1691         0.415014   
    148. A(C   5,C  12,C  21)          121.4946         0.416282   
    149. A(C  14,C  12,C  21)          107.1292         0.404263   
    150. A(C   5,C  12,C  14)          119.9880         0.418606   
    151. A(C   6,C  13,C  15)          107.4728         0.403352   
    152. A(C  15,C  13,C  22)          122.3512         0.416719   
    153. A(C   6,C  13,C  22)          120.5049         0.413761   
    154. A(C   6,C  14,C  12)          120.8369         0.419736   
    155. A(C   6,C  14,C  23)          120.6600         0.419346   
    156. A(C  12,C  14,C  23)          109.6202         0.406127   
    157. A(C   7,C  15,C  24)          120.6312         0.416622   
    158. A(C   7,C  15,C  13)          108.7545         0.402817   
    159. A(C  13,C  15,C  24)          119.1660         0.420170   
    160. A(C  10,C  16,C  25)          107.9883         0.399609   
    161. A(C   8,C  16,C  25)          120.0175         0.414594   
    162. A(C   8,C  16,C  10)          120.0214         0.414484   
    163. A(C  18,C  17,C  26)          119.9567         0.414686   
    164. A(C   8,C  17,C  26)          119.9859         0.414310   
    165. A(C   8,C  17,C  18)          107.9860         0.399588   
    166. A(C   9,C  18,C  27)          120.0355         0.414195   
    167. A(C  17,C  18,C  27)          119.9149         0.414557   
    168. A(C   9,C  18,C  17)          107.9281         0.399600   
    169. A(C  10,C  19,C  29)          119.9802         0.414132   
    170. A(C  10,C  19,C  28)          107.9789         0.399556   
    171. A(C  28,C  19,C  29)          119.9754         0.414216   
    172. A(C  29,C  20,C  30)          107.8651         0.399347   
    173. A(C  11,C  20,C  30)          120.2383         0.414233   
    174. A(C  11,C  20,C  29)          119.9266         0.415197   
    175. A(C  30,C  21,C  31)          122.1604         0.411186   
    176. A(C  12,C  21,C  31)          108.9714         0.396683   
    177. A(C  12,C  21,C  30)          118.5121         0.416795   
    178. A(C  32,C  22,C  33)          115.7408         0.391092   
    179. A(C  13,C  22,C  33)          118.8852         0.406689   
    180. A(C  13,C  22,C  32)          117.6286         0.410948   
    181. A(C  31,C  23,C  32)          126.0190         0.409489   
    182. A(C  14,C  23,C  32)          118.7083         0.417602   
    183. A(C  14,C  23,C  31)          107.5852         0.397932   
    184. A(C  15,C  24,C  27)          119.5080         0.416459   
    185. A(C  27,C  24,C  34)          109.0701         0.399329   
    186. A(C  15,C  24,C  34)          119.7960         0.416653   
    187. A(C  16,C  25,C  28)          108.0126         0.399685   
    188. A(C  28,C  25,C  35)          120.0162         0.414555   
    189. A(C  16,C  25,C  35)          120.0380         0.414586   
    190. A(C  35,C  26,C  36)          108.0025         0.399594   
    191. A(C  17,C  26,C  36)          120.0201         0.414709   
    192. A(C  17,C  26,C  35)          120.0190         0.414293   
    193. A(C  18,C  27,C  24)          120.1499         0.414138   
    194. A(C  24,C  27,C  37)          107.6621         0.401042   
    195. A(C  18,C  27,C  37)          120.1189         0.416126   
    196. A(C  19,C  28,C  25)          108.0128         0.399646   
    197. A(C  25,C  28,C  38)          120.0069         0.414729   
    198. A(C  19,C  28,C  38)          120.0163         0.414718   
    199. A(C  20,C  29,C  39)          107.9871         0.400132   
    200. A(C  19,C  29,C  39)          120.0188         0.414406   
    201. A(C  19,C  29,C  20)          120.0016         0.414546   
    202. A(C  21,C  30,C  40)          119.3830         0.417765   
    203. A(C  20,C  30,C  40)          108.1582         0.401151   
    204. A(C  20,C  30,C  21)          120.6186         0.414899   
    205. A(C  23,C  31,C  41)          124.5718         0.404888   
    206. A(C  21,C  31,C  41)          118.5342         0.405471   
    207. A(C  21,C  31,C  23)          106.3115         0.390861   
    208. A(C  23,C  32,C  68)          121.5024         0.402977   
    209. A(C  22,C  32,C  68)          116.1367         0.386543   
    210. A(C  22,C  32,C  23)          117.0124         0.412052   
    211. A(C  34,C  33,C  43)          117.5781         0.403995   
    212. A(C  22,C  33,C  43)          115.6246         0.387639   
    213. A(C  22,C  33,C  34)          117.6154         0.403421   
    214. A(C  24,C  34,C  44)          106.4971         0.399205   
    215. A(C  33,C  34,C  44)          121.8735         0.409585   
    216. A(C  24,C  34,C  33)          121.8828         0.409903   
    217. A(C  26,C  35,C  45)          108.0605         0.399533   
    218. A(C  25,C  35,C  45)          120.0182         0.414667   
    219. A(C  25,C  35,C  26)          119.9538         0.414315   
    220. A(C  37,C  36,C  46)          120.0095         0.414199   
    221. A(C  26,C  36,C  46)          107.9249         0.399729   
    222. A(C  26,C  36,C  37)          119.8836         0.414474   
    223. A(C  36,C  37,C  44)          120.2029         0.414156   
    224. A(C  27,C  37,C  44)          107.7028         0.401162   
    225. A(C  27,C  37,C  36)          120.0965         0.416019   
    226. A(C  47,C  38,C  48)          107.9483         0.399397   
    227. A(C  28,C  38,C  48)          119.9165         0.414726   
    228. A(C  28,C  38,C  47)          120.0131         0.414461   
    229. A(C  40,C  39,C  48)          120.2771         0.414276   
    230. A(C  29,C  39,C  48)          119.9050         0.414999   
    231. A(C  29,C  39,C  40)          107.9319         0.399308   
    232. A(C  30,C  40,C  39)          108.0533         0.401247   
    233. A(C  39,C  40,C  49)          120.6546         0.414766   
    234. A(C  30,C  40,C  49)          119.4575         0.417531   
    235. A(C  49,C  41,C  50)          106.1628         0.389382   
    236. A(C  31,C  41,C  50)          124.5284         0.403820   
    237. A(C  31,C  41,C  49)          118.3063         0.404988   
    238. A(C  50,C  42,C  68)          121.2310         0.402872   
    239. A(C  43,C  42,C  68)          116.4203         0.387427   
    240. A(C  43,C  42,C  50)          117.0537         0.412380   
    241. A(C  33,C  43,C  42)          115.7237         0.392297   
    242. A(C  42,C  43,C  51)          117.6710         0.412247   
    243. A(C  33,C  43,C  51)          119.0400         0.407863   
    244. A(C  34,C  44,C  37)          109.0305         0.399141   
    245. A(C  37,C  44,C  52)          119.4346         0.416757   
    246. A(C  34,C  44,C  52)          119.7218         0.416499   
    247. A(C  46,C  45,C  47)          119.9507         0.414254   
    248. A(C  35,C  45,C  47)          119.9890         0.414370   
    249. A(C  35,C  45,C  46)          107.8891         0.399758   
    250. A(C  36,C  46,C  45)          108.1198         0.399557   
    251. A(C  45,C  46,C  53)          119.8985         0.415206   
    252. A(C  36,C  46,C  53)          119.7754         0.415111   
    253. A(C  38,C  47,C  45)          119.9558         0.413991   
    254. A(C  45,C  47,C  54)          120.0224         0.414429   
    255. A(C  38,C  47,C  54)          108.0325         0.399563   
    256. A(C  38,C  48,C  39)          120.1564         0.414817   
    257. A(C  39,C  48,C  55)          119.4481         0.415906   
    258. A(C  38,C  48,C  55)          107.9761         0.400688   
    259. A(C  41,C  49,C  56)          109.0200         0.396288   
    260. A(C  40,C  49,C  56)          118.4424         0.416640   
    261. A(C  40,C  49,C  41)          122.1381         0.410464   
    262. A(C  42,C  50,C  57)          118.6956         0.417196   
    263. A(C  41,C  50,C  57)          107.5726         0.396859   
    264. A(C  41,C  50,C  42)          125.9516         0.408041   
    265. A(C  52,C  51,C  58)          107.4853         0.403377   
    266. A(C  43,C  51,C  58)          120.5176         0.414528   
    267. A(C  43,C  51,C  52)          122.3048         0.417195   
    268. A(C  51,C  52,C  53)          108.7611         0.402819   
    269. A(C  44,C  52,C  53)          120.7243         0.416933   
    270. A(C  44,C  52,C  51)          119.1875         0.420207   
    271. A(C  52,C  53,C  59)          107.5553         0.400176   
    272. A(C  46,C  53,C  59)          120.2891         0.415725   
    273. A(C  46,C  53,C  52)          119.8358         0.415243   
    274. A(C  55,C  54,C  59)          120.0010         0.414135   
    275. A(C  47,C  54,C  59)          119.9926         0.414432   
    276. A(C  47,C  54,C  55)          107.8255         0.399698   
    277. A(C  54,C  55,C  56)          119.6656         0.414724   
    278. A(C  48,C  55,C  56)          119.6547         0.415937   
    279. A(C  48,C  55,C  54)          108.2152         0.400569   
    280. A(C  55,C  56,C  57)          120.0207         0.418567   
    281. A(C  49,C  56,C  57)          107.2074         0.404478   
    282. A(C  49,C  56,C  55)          121.5065         0.416178   
    283. A(C  56,C  57,C  58)          120.7751         0.419700   
    284. A(C  50,C  57,C  58)          120.5286         0.419134   
    285. A(C  50,C  57,C  56)          109.6756         0.406237   
    286. A(C  57,C  58,C  59)          119.5247         0.416495   
    287. A(C  51,C  58,C  59)          108.4407         0.400737   
    288. A(C  51,C  58,C  57)          118.4235         0.416585   
    289. A(C  54,C  59,C  58)          119.9850         0.414782   
    290. A(C  53,C  59,C  58)          107.7468         0.400644   
    291. A(C  53,C  59,C  54)          119.8379         0.414775   
    292. A(C  64,C  61,H  66)          110.9786         0.324519   
    293. A(H  62,C  61,H  66)          108.0827         0.287148   
    294. A(H  60,C  61,H  66)          108.8566         0.287297   
    295. A(H  62,C  61,C  64)          109.6245         0.324155   
    296. A(H  60,C  61,C  64)          110.9563         0.324333   
    297. A(H  60,C  61,H  62)          108.2552         0.286991   
    298. A(H  63,C  64,H  70)          109.2579         0.287598   
    299. A(C  61,C  64,H  70)          111.2875         0.324506   
    300. A(O  65,C  64,H  70)          108.6580         0.331022   
    301. A(H  63,C  64,O  65)          104.3002         0.331223   
    302. A(C  61,C  64,O  65)          111.5324         0.376240   
    303. A(C  61,C  64,H  63)          111.5373         0.324702   
    304. A(C  64,O  65,C  67)          117.9559         0.412047   
    305. A(C  68,C  67,O  69)          125.5660         0.432283   
    306. A(O  65,C  67,O  69)          125.3063         0.484825   
    307. A(O  65,C  67,C  68)          109.1086         0.395608   
    308. A(C  67,C  68,C  71)          105.5968         0.355831   
    309. A(C  42,C  68,C  71)          115.0854         0.367490   
    310. A(C  32,C  68,C  71)          115.4672         0.367265   
    311. A(C  42,C  68,C  67)          113.5532         0.366527   
    312. A(C  32,C  68,C  67)          113.3280         0.366303   
    313. A(C  32,C  68,C  42)           93.9513         0.378419   
    314. A(O  73,C  71,O  75)          124.7487         0.484977   
    315. A(C  68,C  71,O  75)          126.0891         0.433630   
    316. A(C  68,C  71,O  73)          109.1258         0.396650   
    317. A(C  71,O  73,C  76)          117.1038         0.412653   
    318. A(C  77,C  76,H  80)          112.3132         0.325104   
    319. A(H  74,C  76,H  80)          107.1941         0.286849   
    320. A(O  73,C  76,H  80)          108.5553         0.331115   
    321. A(H  74,C  76,C  77)          112.2619         0.325147   
    322. A(O  73,C  76,C  77)          107.9545         0.377981   
    323. A(O  73,C  76,H  74)          108.4473         0.331158   
    324. A(H  78,C  77,H  79)          108.3381         0.287119   
    325. A(C  76,C  77,H  79)          111.0612         0.325316   
    326. A(H  72,C  77,H  79)          108.2522         0.287185   
    327. A(C  76,C  77,H  78)          109.7641         0.325257   
    328. A(H  72,C  77,H  78)          108.3200         0.287135   
    329. A(H  72,C  77,C  76)          111.0174         0.325335   
    330. D(C   5,C   1,C   0,C   4)      0.5089         0.016561   
    331. D(C   2,C   1,C   0,C   3)      0.1549         0.016561   
    332. D(C   5,C   1,C   0,C   3)   -142.1344         0.016561   
    333. D(C   2,C   1,C   0,C   4)    142.7982         0.016561   
    334. D(C   7,C   2,C   1,C   0)     -0.9083         0.025007   
    335. D(C   6,C   2,C   1,C   0)   -138.3673         0.025007   
    336. D(C   7,C   2,C   1,C   5)    136.8383         0.025007   
    337. D(C   6,C   2,C   1,C   5)     -0.6208         0.025007   
    338. D(C   9,C   3,C   0,C   1)      0.4124         0.024981   
    339. D(C   8,C   3,C   0,C   4)      0.0238         0.024981   
    340. D(C   9,C   3,C   0,C   4)   -137.8530         0.024981   
    341. D(C   8,C   3,C   0,C   1)    138.2893         0.024981   
    342. D(C  10,C   4,C   0,C   3)     -0.1557         0.016330   
    343. D(C  11,C   4,C   0,C   3)    142.2859         0.016330   
    344. D(C  11,C   4,C   0,C   1)     -0.3944         0.016330   
    345. D(C  10,C   4,C   0,C   1)   -142.8360         0.016330   
    346. D(C  12,C   5,C   1,C   2)     -0.9182         0.016315   
    347. D(C  11,C   5,C   1,C   2)   -142.7220         0.016315   
    348. D(C  12,C   5,C   1,C   0)    141.3730         0.016315   
    349. D(C  11,C   5,C   1,C   0)     -0.4308         0.016315   
    350. D(C  14,C   6,C   2,C   1)      1.3072         0.016669   
    351. D(C  14,C   6,C   2,C   7)   -140.6919         0.016669   
    352. D(C  13,C   6,C   2,C   7)     -0.8975         0.016669   
    353. D(C  13,C   6,C   2,C   1)    141.1016         0.016669   
    354. D(C  15,C   7,C   2,C   1)   -141.0747         0.016773   
    355. D(C  15,C   7,C   2,C   6)      0.9923         0.016773   
    356. D(C   9,C   7,C   2,C   6)    143.1793         0.016773   
    357. D(C   9,C   7,C   2,C   1)      1.1124         0.016773   
    358. D(C  17,C   8,C   3,C   9)     -0.1219         0.016499   
    359. D(C  17,C   8,C   3,C   0)   -142.4665         0.016499   
    360. D(C  16,C   8,C   3,C   0)      0.2423         0.016499   
    361. D(C  16,C   8,C   3,C   9)    142.5869         0.016499   
    362. D(C  18,C   9,C   7,C   2)   -138.5243         0.025763   
    363. D(C   7,C   9,C   3,C   8)   -142.5949         0.016496   
    364. D(C  18,C   9,C   7,C  15)     -0.8987         0.025763   
    365. D(C   3,C   9,C   7,C   2)     -0.5457         0.025763   
    366. D(C  18,C   9,C   3,C   0)    142.1065         0.016496   
    367. D(C   3,C   9,C   7,C  15)    137.0799         0.025763   
    368. D(C   7,C   9,C   3,C   0)     -0.2115         0.016496   
    369. D(C  18,C   9,C   3,C   8)     -0.2769         0.016496   
    370. D(C  19,C  10,C   4,C  11)      0.2114         0.025352   
    371. D(C  16,C  10,C   4,C   0)      0.0256         0.025352   
    372. D(C  16,C  10,C   4,C  11)   -137.9807         0.025352   
    373. D(C  19,C  10,C   4,C   0)    138.2178         0.025352   
    374. D(C  20,C  11,C   4,C   0)   -141.8528         0.016517   
    375. D(C  20,C  11,C   5,C  12)      0.6222         0.016899   
    376. D(C  20,C  11,C   5,C   1)    142.4601         0.016899   
    377. D(C   4,C  11,C   5,C  12)   -141.6503         0.016899   
    378. D(C  20,C  11,C   4,C  10)      0.6379         0.016517   
    379. D(C   5,C  11,C   4,C  10)    142.6183         0.016517   
    380. D(C   5,C  11,C   4,C   0)      0.1276         0.016517   
    381. D(C   4,C  11,C   5,C   1)      0.1876         0.016899   
    382. D(C  21,C  12,C   5,C  11)      0.4670         0.025572   
    383. D(C  21,C  12,C   5,C   1)   -137.0340         0.025572   
    384. D(C  14,C  12,C   5,C  11)    139.2615         0.025572   
    385. D(C  14,C  12,C   5,C   1)      1.7605         0.025572   
    386. D(C  22,C  13,C   6,C  14)     -6.0098         0.016659   
    387. D(C  15,C  13,C   6,C  14)    140.7698         0.016659   
    388. D(C  22,C  13,C   6,C   2)   -146.3288         0.016659   
    389. D(C  15,C  13,C   6,C   2)      0.4508         0.016659   
    390. D(C  23,C  14,C   6,C   2)    143.4865         0.026403   
    391. D(C  12,C  14,C   6,C  13)   -136.3712         0.026403   
    392. D(C  12,C  14,C   6,C   2)     -0.4659         0.026403   
    393. D(C  23,C  14,C  12,C  21)     -4.5723         0.018141   
    394. D(C  23,C  14,C  12,C   5)   -148.5719         0.018141   
    395. D(C   6,C  14,C  12,C  21)    142.9210         0.018141   
    396. D(C   6,C  14,C  12,C   5)     -1.0785         0.018141   
    397. D(C  23,C  14,C   6,C  13)      7.5812         0.026403   
    398. D(C  24,C  15,C  13,C  22)      2.5210         0.018068   
    399. D(C  24,C  15,C  13,C   6)   -143.5091         0.018068   
    400. D(C   7,C  15,C  13,C   6)      0.1695         0.018068   
    401. D(C   7,C  15,C  13,C  22)    146.1996         0.018068   
    402. D(C  24,C  15,C   7,C   9)     -0.0395         0.016409   
    403. D(C  24,C  15,C   7,C   2)    142.3292         0.016409   
    404. D(C  13,C  15,C   7,C   9)   -143.0917         0.016409   
    405. D(C  13,C  15,C   7,C   2)     -0.7230         0.016409   
    406. D(C   8,C  16,C  10,C  19)   -142.3814         0.016420   
    407. D(C   8,C  16,C  10,C   4)      0.2407         0.016420   
    408. D(C  25,C  16,C   8,C  17)     -0.2787         0.025230   
    409. D(C  25,C  16,C  10,C   4)    142.9053         0.016420   
    410. D(C  25,C  16,C   8,C   3)   -138.5989         0.025230   
    411. D(C  25,C  16,C  10,C  19)      0.2831         0.016420   
    412. D(C  10,C  16,C   8,C  17)    137.9476         0.025230   
    413. D(C  10,C  16,C   8,C   3)     -0.3726         0.025230   
    414. D(C  26,C  17,C   8,C   3)    142.9847         0.016356   
    415. D(C  18,C  17,C   8,C  16)   -142.2455         0.016356   
    416. D(C  18,C  17,C   8,C   3)      0.4744         0.016356   
    417. D(C  26,C  17,C   8,C  16)      0.2648         0.016356   
    418. D(C  27,C  18,C  17,C  26)     -0.6918         0.016524   
    419. D(C  27,C  18,C  17,C   8)    141.8315         0.016524   
    420. D(C   9,C  18,C  17,C   8)     -0.6445         0.016524   
    421. D(C   9,C  18,C  17,C  26)   -143.1677         0.016524   
    422. D(C  27,C  18,C   9,C   7)      0.5345         0.016362   
    423. D(C  17,C  18,C   9,C   7)    142.9570         0.016362   
    424. D(C  27,C  18,C   9,C   3)   -141.8524         0.016362   
    425. D(C  17,C  18,C   9,C   3)      0.5701         0.016362   
    426. D(C  29,C  19,C  10,C  16)    142.0624         0.016414   
    427. D(C  29,C  19,C  10,C   4)     -0.5599         0.016414   
    428. D(C  28,C  19,C  10,C  16)     -0.4631         0.016414   
    429. D(C  28,C  19,C  10,C   4)   -143.0855         0.016414   
    430. D(C  30,C  20,C  11,C   5)     -0.6292         0.025458   
    431. D(C  30,C  20,C  11,C   4)    137.0565         0.025458   
    432. D(C  29,C  20,C  11,C   5)   -138.8115         0.025458   
    433. D(C  29,C  20,C  11,C   4)     -1.1257         0.025458   
    434. D(C  31,C  21,C  12,C  14)      0.9403         0.017026   
    435. D(C  31,C  21,C  12,C   5)    144.2809         0.017026   
    436. D(C  30,C  21,C  12,C  14)   -144.8821         0.017026   
    437. D(C  30,C  21,C  12,C   5)     -1.5415         0.017026   
    438. D(C  33,C  22,C  13,C  15)     -6.2654         0.024342   
    439. D(C  33,C  22,C  13,C   6)    135.5207         0.024342   
    440. D(C  32,C  22,C  13,C  15)   -154.3269         0.024342   
    441. D(C  32,C  22,C  13,C   6)    -12.5409         0.024342   
    442. D(C  32,C  23,C  14,C  12)    157.6833         0.017950   
    443. D(C  32,C  23,C  14,C   6)     10.1230         0.017950   
    444. D(C  31,C  23,C  14,C  12)      6.4111         0.017950   
    445. D(C  31,C  23,C  14,C   6)   -141.1492         0.017950   
    446. D(C  34,C  24,C  15,C  13)      1.4681         0.026843   
    447. D(C  34,C  24,C  15,C   7)   -137.8533         0.026843   
    448. D(C  27,C  24,C  15,C  13)    140.6411         0.026843   
    449. D(C  27,C  24,C  15,C   7)      1.3198         0.026843   
    450. D(C  35,C  25,C  16,C  10)   -142.7120         0.016470   
    451. D(C  35,C  25,C  16,C   8)     -0.0458         0.016470   
    452. D(C  28,C  25,C  16,C  10)      0.0051         0.016470   
    453. D(C  28,C  25,C  16,C   8)    142.6714         0.016470   
    454. D(C  36,C  26,C  17,C   8)   -138.1825         0.025208   
    455. D(C  35,C  26,C  17,C  18)    138.1475         0.025208   
    456. D(C  35,C  26,C  17,C   8)      0.0710         0.025208   
    457. D(C  36,C  26,C  17,C  18)     -0.1060         0.025208   
    458. D(C  37,C  27,C  24,C  34)     -1.1282         0.016336   
    459. D(C  37,C  27,C  24,C  15)   -144.2375         0.016336   
    460. D(C  18,C  27,C  24,C  34)    141.4287         0.016336   
    461. D(C  18,C  27,C  24,C  15)     -1.6805         0.016336   
    462. D(C  37,C  27,C  18,C  17)      0.7265         0.025116   
    463. D(C  37,C  27,C  18,C   9)    138.7049         0.025116   
    464. D(C  24,C  27,C  18,C  17)   -137.2266         0.025116   
    465. D(C  24,C  27,C  18,C   9)      0.7518         0.025116   
    466. D(C  38,C  28,C  25,C  35)     -0.2421         0.016456   
    467. D(C  38,C  28,C  25,C  16)   -142.9688         0.016456   
    468. D(C  19,C  28,C  25,C  35)    142.4353         0.016456   
    469. D(C  19,C  28,C  25,C  16)     -0.2915         0.016456   
    470. D(C  38,C  28,C  19,C  29)      0.6118         0.016451   
    471. D(C  38,C  28,C  19,C  10)    143.1395         0.016451   
    472. D(C  25,C  28,C  19,C  29)   -142.0614         0.016451   
    473. D(C  25,C  28,C  19,C  10)      0.4663         0.016451   
    474. D(C  39,C  29,C  20,C  30)      0.6596         0.016600   
    475. D(C  39,C  29,C  20,C  11)    143.4145         0.016600   
    476. D(C  19,C  29,C  20,C  30)   -141.9799         0.016600   
    477. D(C  19,C  29,C  20,C  11)      0.7750         0.016600   
    478. D(C  39,C  29,C  19,C  28)     -0.0415         0.024988   
    479. D(C  39,C  29,C  19,C  10)   -138.1241         0.024988   
    480. D(C  20,C  29,C  19,C  28)    138.1545         0.024988   
    481. D(C  20,C  29,C  19,C  10)      0.0719         0.024988   
    482. D(C  40,C  30,C  21,C  31)     -1.1167         0.025949   
    483. D(C  40,C  30,C  21,C  12)    140.0149         0.025949   
    484. D(C  20,C  30,C  21,C  31)   -139.6071         0.025949   
    485. D(C  20,C  30,C  21,C  12)      1.5245         0.025949   
    486. D(C  40,C  30,C  20,C  29)     -0.4253         0.016169   
    487. D(C  40,C  30,C  20,C  11)   -143.0426         0.016169   
    488. D(C  21,C  30,C  20,C  29)    142.1473         0.016169   
    489. D(C  21,C  30,C  20,C  11)     -0.4700         0.016169   
    490. D(C  41,C  31,C  23,C  32)    -10.5011         0.014383   
    491. D(C  41,C  31,C  23,C  14)    138.0855         0.014383   
    492. D(C  21,C  31,C  23,C  32)   -154.2195         0.014383   
    493. D(C  21,C  31,C  23,C  14)     -5.6329         0.014383   
    494. D(C  41,C  31,C  21,C  30)      0.9188         0.014617   
    495. D(C  41,C  31,C  21,C  12)   -143.4125         0.014617   
    496. D(C  23,C  31,C  21,C  30)    147.2337         0.014617   
    497. D(C  23,C  31,C  21,C  12)      2.9023         0.014617   
    498. D(C  68,C  32,C  23,C  31)    -36.3545         0.025129   
    499. D(C  68,C  32,C  23,C  14)    178.1511         0.025129   
    500. D(C  22,C  32,C  23,C  31)    116.8168         0.025129   
    501. D(C  22,C  32,C  23,C  14)    -28.6776         0.025129   
    502. D(C  68,C  32,C  22,C  33)     35.4926         0.015424   
    503. D(C  68,C  32,C  22,C  13)   -175.4528         0.015424   
    504. D(C  23,C  32,C  22,C  33)   -119.1263         0.015424   
    505. D(C  23,C  32,C  22,C  13)     29.9283         0.015424   
    506. D(C  43,C  33,C  22,C  32)      8.4602         0.013729   
    507. D(C  43,C  33,C  22,C  13)   -140.1861         0.013729   
    508. D(C  34,C  33,C  22,C  32)    154.5990         0.013729   
    509. D(C  34,C  33,C  22,C  13)      5.9527         0.013729   
    510. D(C  44,C  34,C  33,C  43)      1.9752         0.022122   
    511. D(C  44,C  34,C  33,C  22)   -143.4987         0.022122   
    512. D(C  24,C  34,C  33,C  43)    143.2889         0.022122   
    513. D(C  24,C  34,C  33,C  22)     -2.1851         0.022122   
    514. D(C  44,C  34,C  24,C  27)      1.8728         0.016422   
    515. D(C  44,C  34,C  24,C  15)    144.8587         0.016422   
    516. D(C  33,C  34,C  24,C  27)   -144.5130         0.016422   
    517. D(C  33,C  34,C  24,C  15)     -1.5271         0.016422   
    518. D(C  45,C  35,C  26,C  36)     -0.3876         0.016348   
    519. D(C  45,C  35,C  26,C  17)   -143.0730         0.016348   
    520. D(C  25,C  35,C  26,C  36)    142.2902         0.016348   
    521. D(C  25,C  35,C  26,C  17)     -0.3952         0.016348   
    522. D(C  45,C  35,C  25,C  28)      0.3483         0.025224   
    523. D(C  26,C  35,C  25,C  16)      0.3815         0.025224   
    524. D(C  45,C  35,C  25,C  16)    138.6440         0.025224   
    525. D(C  26,C  35,C  25,C  28)   -137.9142         0.025224   
    526. D(C  46,C  36,C  26,C  35)      0.5742         0.016535   
    527. D(C  46,C  36,C  26,C  17)    143.2591         0.016535   
    528. D(C  37,C  36,C  26,C  35)   -141.8125         0.016535   
    529. D(C  37,C  36,C  26,C  17)      0.8724         0.016535   
    530. D(C  44,C  37,C  36,C  46)     -0.6489         0.025039   
    531. D(C  44,C  37,C  36,C  26)    137.2374         0.025039   
    532. D(C  27,C  37,C  36,C  46)   -138.7259         0.025039   
    533. D(C  27,C  37,C  36,C  26)     -0.8395         0.025039   
    534. D(C  44,C  37,C  27,C  24)     -0.0773         0.017249   
    535. D(C  44,C  37,C  27,C  18)   -142.6480         0.017249   
    536. D(C  36,C  37,C  27,C  24)    142.6121         0.017249   
    537. D(C  36,C  37,C  27,C  18)      0.0414         0.017249   
    538. D(C  48,C  38,C  28,C  25)    137.9943         0.025350   
    539. D(C  48,C  38,C  28,C  19)     -0.2547         0.025350   
    540. D(C  47,C  38,C  28,C  25)      0.0089         0.025350   
    541. D(C  47,C  38,C  28,C  19)   -138.2401         0.025350   
    542. D(C  48,C  39,C  29,C  20)   -143.5294         0.016537   
    543. D(C  48,C  39,C  29,C  19)     -0.8975         0.016537   
    544. D(C  40,C  39,C  29,C  20)     -0.6431         0.016537   
    545. D(C  40,C  39,C  29,C  19)    141.9889         0.016537   
    546. D(C  49,C  40,C  39,C  48)      0.4998         0.016213   
    547. D(C  49,C  40,C  39,C  29)   -142.2229         0.016213   
    548. D(C  30,C  40,C  39,C  48)    143.1031         0.016213   
    549. D(C  30,C  40,C  39,C  29)      0.3804         0.016213   
    550. D(C  49,C  40,C  30,C  21)      0.0423         0.017482   
    551. D(C  49,C  40,C  30,C  20)    143.1556         0.017482   
    552. D(C  39,C  40,C  30,C  21)   -143.0856         0.017482   
    553. D(C  39,C  40,C  30,C  20)      0.0277         0.017482   
    554. D(C  50,C  41,C  31,C  23)     -0.4388         0.021979   
    555. D(C  50,C  41,C  31,C  21)    139.2861         0.021979   
    556. D(C  49,C  41,C  31,C  23)   -139.4057         0.021979   
    557. D(C  49,C  41,C  31,C  21)      0.3192         0.021979   
    558. D(C  51,C  43,C  42,C  68)    175.3406         0.015720   
    559. D(C  51,C  43,C  42,C  50)    -29.9925         0.015720   
    560. D(C  33,C  43,C  42,C  68)    -35.2270         0.015720   
    561. D(C  33,C  43,C  42,C  50)    119.4399         0.015720   
    562. D(C  51,C  43,C  33,C  34)     -5.7958         0.013948   
    563. D(C  51,C  43,C  33,C  22)    140.3560         0.013948   
    564. D(C  42,C  43,C  33,C  34)   -154.7880         0.013948   
    565. D(C  42,C  43,C  33,C  22)     -8.6361         0.013948   
    566. D(C  52,C  44,C  37,C  36)      1.4385         0.016392   
    567. D(C  52,C  44,C  37,C  27)    144.0808         0.016392   
    568. D(C  34,C  44,C  37,C  36)   -141.3884         0.016392   
    569. D(C  34,C  44,C  37,C  27)      1.2539         0.016392   
    570. D(C  52,C  44,C  34,C  33)      1.7659         0.016278   
    571. D(C  52,C  44,C  34,C  24)   -144.6237         0.016278   
    572. D(C  37,C  44,C  34,C  33)    144.4689         0.016278   
    573. D(C  37,C  44,C  34,C  24)     -1.9207         0.016278   
    574. D(C  47,C  45,C  35,C  26)    142.4235         0.016506   
    575. D(C  47,C  45,C  35,C  25)     -0.2260         0.016506   
    576. D(C  46,C  45,C  35,C  26)      0.0520         0.016506   
    577. D(C  46,C  45,C  35,C  25)   -142.5975         0.016506   
    578. D(C  53,C  46,C  45,C  35)    142.5719         0.016454   
    579. D(C  36,C  46,C  45,C  47)   -142.0852         0.016454   
    580. D(C  36,C  46,C  45,C  35)      0.3033         0.016454   
    581. D(C  53,C  46,C  36,C  37)     -0.5352         0.016411   
    582. D(C  53,C  46,C  36,C  26)   -142.8659         0.016411   
    583. D(C  45,C  46,C  36,C  37)    141.7879         0.016411   
    584. D(C  45,C  46,C  36,C  26)     -0.5429         0.016411   
    585. D(C  53,C  46,C  45,C  47)      0.1834         0.016454   
    586. D(C  54,C  47,C  45,C  46)     -0.3370         0.025011   
    587. D(C  54,C  47,C  45,C  35)   -138.2257         0.025011   
    588. D(C  38,C  47,C  45,C  46)    137.8816         0.025011   
    589. D(C  38,C  47,C  45,C  35)     -0.0070         0.025011   
    590. D(C  54,C  47,C  38,C  48)      0.3384         0.016336   
    591. D(C  54,C  47,C  38,C  28)    142.7624         0.016336   
    592. D(C  45,C  47,C  38,C  48)   -142.3108         0.016336   
    593. D(C  45,C  47,C  38,C  28)      0.1132         0.016336   
    594. D(C  55,C  48,C  39,C  40)      0.4738         0.025416   
    595. D(C  55,C  48,C  39,C  29)    138.8097         0.025416   
    596. D(C  38,C  48,C  39,C  40)   -137.0792         0.025416   
    597. D(C  38,C  48,C  39,C  29)      1.2567         0.025416   
    598. D(C  55,C  48,C  38,C  47)     -0.0594         0.016455   
    599. D(C  55,C  48,C  38,C  28)   -142.5263         0.016455   
    600. D(C  39,C  48,C  38,C  47)    141.7798         0.016455   
    601. D(C  39,C  48,C  38,C  28)     -0.6872         0.016455   
    602. D(C  56,C  49,C  41,C  50)     -2.8799         0.014423   
    603. D(C  56,C  49,C  41,C  31)    142.8491         0.014423   
    604. D(C  40,C  49,C  41,C  50)   -147.1230         0.014423   
    605. D(C  40,C  49,C  41,C  31)     -1.3939         0.014423   
    606. D(C  56,C  49,C  40,C  39)     -1.3990         0.025776   
    607. D(C  56,C  49,C  40,C  30)   -139.8574         0.025776   
    608. D(C  41,C  49,C  40,C  39)    139.6776         0.025776   
    609. D(C  41,C  49,C  40,C  30)      1.2192         0.025776   
    610. D(C  57,C  50,C  42,C  68)   -178.0555         0.024863   
    611. D(C  57,C  50,C  42,C  43)     28.5684         0.024863   
    612. D(C  41,C  50,C  42,C  68)     36.6420         0.024863   
    613. D(C  41,C  50,C  42,C  43)   -116.7341         0.024863   
    614. D(C  57,C  50,C  41,C  49)      5.5018         0.013965   
    615. D(C  57,C  50,C  41,C  31)   -137.5007         0.013965   
    616. D(C  42,C  50,C  41,C  49)    153.9161         0.013965   
    617. D(C  42,C  50,C  41,C  31)     10.9136         0.013965   
    618. D(C  58,C  51,C  43,C  42)     12.7593         0.024768   
    619. D(C  58,C  51,C  43,C  33)   -135.6373         0.024768   
    620. D(C  52,C  51,C  43,C  42)    154.5127         0.024768   
    621. D(C  52,C  51,C  43,C  33)      6.1161         0.024768   
    622. D(C  53,C  52,C  51,C  58)     -0.2078         0.018001   
    623. D(C  53,C  52,C  51,C  43)   -146.2123         0.018001   
    624. D(C  44,C  52,C  51,C  58)    143.6729         0.018001   
    625. D(C  44,C  52,C  51,C  43)     -2.3317         0.018001   
    626. D(C  53,C  52,C  44,C  37)     -1.0455         0.026976   
    627. D(C  53,C  52,C  44,C  34)    137.8275         0.026976   
    628. D(C  51,C  52,C  44,C  37)   -140.5577         0.026976   
    629. D(C  51,C  52,C  44,C  34)     -1.6847         0.026976   
    630. D(C  59,C  53,C  52,C  51)      0.7895         0.016470   
    631. D(C  59,C  53,C  52,C  44)   -142.4371         0.016470   
    632. D(C  46,C  53,C  52,C  51)    143.0942         0.016470   
    633. D(C  46,C  53,C  52,C  44)     -0.1324         0.016470   
    634. D(C  59,C  53,C  46,C  45)      0.5373         0.025702   
    635. D(C  59,C  53,C  46,C  36)    138.4642         0.025702   
    636. D(C  52,C  53,C  46,C  45)   -136.9971         0.025702   
    637. D(C  52,C  53,C  46,C  36)      0.9298         0.025702   
    638. D(C  59,C  54,C  47,C  45)     -0.2428         0.016533   
    639. D(C  59,C  54,C  47,C  38)   -142.8627         0.016533   
    640. D(C  55,C  54,C  47,C  45)    142.1331         0.016533   
    641. D(C  55,C  54,C  47,C  38)     -0.4868         0.016533   
    642. D(C  56,C  55,C  54,C  59)      0.9279         0.016399   
    643. D(C  56,C  55,C  54,C  47)   -141.4442         0.016399   
    644. D(C  48,C  55,C  54,C  59)    142.8232         0.016399   
    645. D(C  48,C  55,C  54,C  47)      0.4511         0.016399   
    646. D(C  56,C  55,C  48,C  39)     -0.4983         0.016951   
    647. D(C  56,C  55,C  48,C  38)    141.6578         0.016951   
    648. D(C  54,C  55,C  48,C  39)   -142.3984         0.016951   
    649. D(C  54,C  55,C  48,C  38)     -0.2423         0.016951   
    650. D(C  57,C  56,C  55,C  54)     -1.8703         0.025439   
    651. D(C  57,C  56,C  55,C  48)   -139.4530         0.025439   
    652. D(C  49,C  56,C  55,C  54)    137.1490         0.025439   
    653. D(C  49,C  56,C  55,C  48)     -0.4338         0.025439   
    654. D(C  57,C  56,C  49,C  41)     -0.8441         0.017063   
    655. D(C  57,C  56,C  49,C  40)    144.9111         0.017063   
    656. D(C  55,C  56,C  49,C  41)   -144.3719         0.017063   
    657. D(C  55,C  56,C  49,C  40)      1.3832         0.017063   
    658. D(C  58,C  57,C  56,C  55)      1.3492         0.018213   
    659. D(C  58,C  57,C  56,C  49)   -142.8248         0.018213   
    660. D(C  50,C  57,C  56,C  55)    148.5766         0.018213   
    661. D(C  50,C  57,C  56,C  49)      4.4027         0.018213   
    662. D(C  58,C  57,C  50,C  42)     -9.9972         0.017935   
    663. D(C  58,C  57,C  50,C  41)    141.0972         0.017935   
    664. D(C  56,C  57,C  50,C  42)   -157.3185         0.017935   
    665. D(C  56,C  57,C  50,C  41)     -6.2241         0.017935   
    666. D(C  59,C  58,C  57,C  56)      0.1438         0.026268   
    667. D(C  59,C  58,C  57,C  50)   -143.5764         0.026268   
    668. D(C  51,C  58,C  57,C  56)    136.1884         0.026268   
    669. D(C  51,C  58,C  57,C  50)     -7.5318         0.026268   
    670. D(C  59,C  58,C  51,C  52)     -0.4561         0.016733   
    671. D(C  59,C  58,C  51,C  43)    146.2745         0.016733   
    672. D(C  57,C  58,C  51,C  52)   -140.9131         0.016733   
    673. D(C  57,C  58,C  51,C  43)      5.8175         0.016733   
    674. D(C  54,C  59,C  58,C  57)     -1.0873         0.016692   
    675. D(C  54,C  59,C  58,C  51)   -141.0364         0.016692   
    676. D(C  53,C  59,C  58,C  57)    140.8929         0.016692   
    677. D(C  53,C  59,C  58,C  51)      0.9439         0.016692   
    678. D(C  58,C  59,C  54,C  55)      0.5573         0.025013   
    679. D(C  58,C  59,C  54,C  47)    138.4064         0.025013   
    680. D(C  53,C  59,C  54,C  55)   -136.8897         0.025013   
    681. D(C  53,C  59,C  54,C  47)      0.9594         0.025013   
    682. D(C  58,C  59,C  53,C  52)     -1.0614         0.016688   
    683. D(C  58,C  59,C  53,C  46)   -143.1626         0.016688   
    684. D(C  54,C  59,C  53,C  52)    140.9849         0.016688   
    685. D(C  54,C  59,C  53,C  46)     -1.1163         0.016688   
    686. D(O  65,C  64,C  61,H  66)    -65.4634         0.012048   
    687. D(O  65,C  64,C  61,H  62)    175.2194         0.012048   
    688. D(O  65,C  64,C  61,H  60)     55.7023         0.012048   
    689. D(H  63,C  64,C  61,H  66)    178.3571         0.012048   
    690. D(H  63,C  64,C  61,H  62)     59.0399         0.012048   
    691. D(H  63,C  64,C  61,H  60)    -60.4772         0.012048   
    692. D(C  67,O  65,C  64,H  70)    -37.7891         0.016340   
    693. D(C  67,O  65,C  64,H  63)   -154.2328         0.016340   
    694. D(C  67,O  65,C  64,C  61)     85.2469         0.016340   
    695. D(O  69,C  67,O  65,C  64)      0.7298         0.034269   
    696. D(C  68,C  67,O  65,C  64)    179.2111         0.034269   
    697. D(C  71,C  68,C  67,O  65)    -63.0226         0.009191   
    698. D(C  42,C  68,C  67,O  69)    -11.5498         0.009191   
    699. D(C  42,C  68,C  67,O  65)    169.9738         0.009191   
    700. D(C  32,C  68,C  67,O  65)     64.3184         0.009191   
    701. D(C  71,C  68,C  42,C  43)   -170.1832         0.013114   
    702. D(C  67,C  68,C  42,C  50)    158.1456         0.013114   
    703. D(C  67,C  68,C  42,C  43)    -48.3189         0.013114   
    704. D(C  32,C  68,C  42,C  50)    -84.2656         0.013114   
    705. D(C  32,C  68,C  42,C  43)     69.2699         0.013114   
    706. D(C  71,C  68,C  32,C  22)    170.4938         0.013023   
    707. D(C  32,C  68,C  67,O  69)   -117.2052         0.009191   
    708. D(C  67,C  68,C  32,C  23)   -158.1000         0.013023   
    709. D(C  67,C  68,C  32,C  22)     48.5081         0.013023   
    710. D(C  42,C  68,C  32,C  23)     84.1251         0.013023   
    711. D(C  42,C  68,C  32,C  22)    -69.2667         0.013023   
    712. D(O  75,C  71,C  68,C  42)   -119.7619         0.009451   
    713. D(O  75,C  71,C  68,C  32)    -11.8696         0.009451   
    714. D(O  73,C  71,C  68,C  67)    -63.7151         0.009451   
    715. D(O  73,C  71,C  68,C  42)     62.3539         0.009451   
    716. D(O  73,C  71,C  68,C  32)    170.2462         0.009451   
    717. D(C  76,O  73,C  71,O  75)      0.5628         0.034246   
    718. D(C  76,O  73,C  71,C  68)    178.4819         0.034246   
    719. D(H  80,C  76,O  73,C  71)    -58.0912         0.016626   
    720. D(C  77,C  76,O  73,C  71)    179.9195         0.016626   
    721. D(H  74,C  76,O  73,C  71)     58.0561         0.016626   
    722. D(H  78,C  77,C  76,H  80)     60.3777         0.012474   
    723. D(H  78,C  77,C  76,H  74)    -60.5042         0.012474   
    724. D(H  78,C  77,C  76,O  73)   -179.9808         0.012474   
    725. D(H  72,C  77,C  76,H  80)   -179.8961         0.012474   
    726. D(H  72,C  77,C  76,H  74)     59.2220         0.012474   
    727. D(H  72,C  77,C  76,O  73)    -60.2546         0.012474   
    -----------------------------------------------------------------

Number of atoms                         .... 81
Number of degrees of freedom            .... 727


         *************************************************************
         *                GEOMETRY OPTIMIZATION CYCLE   1            *
         *************************************************************
---------------------------------
CARTESIAN COORDINATES (ANGSTROEM)
---------------------------------
  C      3.363850   -1.995840    0.386460
  C      3.660550   -0.572850    0.435210
  C      3.240830    0.192360    1.529930
  C      2.655790   -2.600090    1.432420
  C      3.061540   -2.347190   -0.994120
  C      3.528910   -0.044320   -0.915540
  C      2.686340    1.519350    1.319240
  C      2.492190   -0.434310    2.605630
  C      1.619450   -3.578390    1.139660
  C      2.209620   -1.800970    2.563430
  C      2.067320   -3.289520   -1.274680
  C      3.162500   -1.138140   -1.796830
  C      2.965250    1.218880   -1.112210
  C      1.582810    1.709180    2.246150
  C      2.552080    2.008330    0.021760
  C      1.465760    0.505390    3.032650
  C      1.333690   -3.919280   -0.186630
  C      0.534460   -3.385680    2.091430
  C      0.895000   -2.280440    2.965860
  C      1.137940   -3.062220   -2.371680
  C      2.259900   -0.909710   -2.839330
  C      2.009350    1.465060   -2.175270
  C      0.467250    2.477220    1.878010
  C      1.419560    2.825630   -0.343400
  C      0.201740    0.055720    3.399700
  C     -0.047190   -4.087250   -0.613750
  C     -0.793060   -3.546950    1.680450
  C     -0.084590   -1.372010    3.382640
  C     -0.167240   -3.561630   -1.965460
  C      1.232520   -1.894360   -3.138200
  C      1.680260    0.413830   -3.031670
  C      1.007260    2.433370   -1.702730
  C      0.575610    3.295830    0.669030
  C     -0.886610    1.966510    2.189290
  C     -0.980280    0.783080    2.961080
  C     -1.089940   -3.908960    0.301610
  C     -1.812550   -2.611390    2.129100
  C     -1.459570   -1.539570    2.957510
  C     -1.327090   -2.882580   -2.351260
  C      0.026720   -1.180890   -3.529210
  C      0.306920    0.247340   -3.456360
  C     -0.337140    2.274450   -2.120660
  C     -1.503750    3.040890    0.030620
  C     -1.907820    2.183830    1.143310
  C     -2.013100   -0.214790    2.716890
  C     -2.298070   -3.204600   -0.099520
  C     -2.746620   -2.406420    1.031660
  C     -2.415150   -2.700960   -1.400560
  C     -1.226870   -1.673220   -3.154530
  C     -0.665070    1.141230   -3.003150
  C     -1.514060    2.470960   -1.248940
  C     -2.837320    1.169090    0.878880
  C     -2.917330   -0.030680    1.676990
  C     -3.296560   -1.140960    0.816220
  C     -2.991470   -1.383850   -1.622020
  C     -2.250310   -0.749010   -2.702220
  C     -1.967380    0.618330   -2.636860
  C     -2.443530    1.401000   -1.523750
  C     -3.163610    0.805670   -0.489590
  C     -3.433910   -0.621620   -0.534230
  H      1.010790    5.705940    4.394390
  C     -0.025020    6.079210    4.378860
  H     -0.141970    6.807110    5.197980
  H      0.317940    7.608190    2.867080
  C     -0.341420    6.748470    3.052680
  O     -0.093770    5.861210    1.938010
  H     -0.708810    5.238550    4.568850
  C     -1.065930    5.013850    1.583050
  C     -0.593690    4.181990    0.364950
  O     -2.143680    4.933900    2.108530
  H     -1.389790    7.079880    3.012590
  C     -0.375760    5.201460   -0.774820
  H     -3.622710    6.464330   -2.595590
  O     -1.546000    5.771780   -1.082410
  H     -1.127360    6.338940   -3.033900
  O      0.675860    5.478440   -1.284850
  C     -1.533960    6.784160   -2.111600
  C     -2.951870    7.282880   -2.292240
  H     -2.977080    8.058690   -3.073540
  H     -3.339960    7.718750   -1.358600
  H     -0.843760    7.587090   -1.805680

----------------------------
CARTESIAN COORDINATES (A.U.)
----------------------------
  NO LB      ZA    FRAG     MASS         X           Y           Z
   0 C     6.0000    0    12.011    6.356755   -3.771591    0.730304
   1 C     6.0000    0    12.011    6.917437   -1.082530    0.822428
   2 C     6.0000    0    12.011    6.124281    0.363508    2.891149
   3 C     6.0000    0    12.011    5.018716   -4.913458    2.706882
   4 C     6.0000    0    12.011    5.785472   -4.435546   -1.878615
   5 C     6.0000    0    12.011    6.668673   -0.083753   -1.730120
   6 C     6.0000    0    12.011    5.076447    2.871155    2.493002
   7 C     6.0000    0    12.011    4.709557   -0.820727    4.923927
   8 C     6.0000    0    12.011    3.060317   -6.762177    2.153645
   9 C     6.0000    0    12.011    4.175577   -3.403340    4.844181
  10 C     6.0000    0    12.011    3.906669   -6.216292   -2.408796
  11 C     6.0000    0    12.011    5.976259   -2.150773   -3.395517
  12 C     6.0000    0    12.011    5.603510    2.303349   -2.101772
  13 C     6.0000    0    12.011    2.991077    3.229882    4.244608
  14 C     6.0000    0    12.011    4.822732    3.795194    0.041120
  15 C     6.0000    0    12.011    2.769885    0.955049    5.730878
  16 C     6.0000    0    12.011    2.520309   -7.406366   -0.352680
  17 C     6.0000    0    12.011    1.009983   -6.398008    3.952230
  18 C     6.0000    0    12.011    1.691305   -4.309407    5.604663
  19 C     6.0000    0    12.011    2.150395   -5.786757   -4.481826
  20 C     6.0000    0    12.011    4.270592   -1.719103   -5.365556
  21 C     6.0000    0    12.011    3.797121    2.768562   -4.110665
  22 C     6.0000    0    12.011    0.882975    4.681267    3.548925
  23 C     6.0000    0    12.011    2.682580    5.339667   -0.648932
  24 C     6.0000    0    12.011    0.381233    0.105296    6.424502
  25 C     6.0000    0    12.011   -0.089176   -7.723783   -1.159819
  26 C     6.0000    0    12.011   -1.498666   -6.702764    3.175590
  27 C     6.0000    0    12.011   -0.159852   -2.592723    6.392263
  28 C     6.0000    0    12.011   -0.316038   -6.730505   -3.714181
  29 C     6.0000    0    12.011    2.329125   -3.579822   -5.930339
  30 C     6.0000    0    12.011    3.175231    0.782025   -5.729026
  31 C     6.0000    0    12.011    1.903446    4.598403   -3.217693
  32 C     6.0000    0    12.011    1.087745    6.228216    1.264283
  33 C     6.0000    0    12.011   -1.675450    3.716165    4.137159
  34 C     6.0000    0    12.011   -1.852461    1.479807    5.595630
  35 C     6.0000    0    12.011   -2.059688   -7.386864    0.569960
  36 C     6.0000    0    12.011   -3.425223   -4.934812    4.023416
  37 C     6.0000    0    12.011   -2.758188   -2.909366    5.588884
  38 C     6.0000    0    12.011   -2.507837   -5.447287   -4.443237
  39 C     6.0000    0    12.011    0.050493   -2.231559   -6.669240
  40 C     6.0000    0    12.011    0.579995    0.467405   -6.531574
  41 C     6.0000    0    12.011   -0.637102    4.298088   -4.007467
  42 C     6.0000    0    12.011   -2.841676    5.746449    0.057863
  43 C     6.0000    0    12.011   -3.605257    4.126841    2.160543
  44 C     6.0000    0    12.011   -3.804208   -0.405894    5.134178
  45 C     6.0000    0    12.011   -4.342723   -6.055816   -0.188066
  46 C     6.0000    0    12.011   -5.190360   -4.547475    1.949555
  47 C     6.0000    0    12.011   -4.563972   -5.104075   -2.646675
  48 C     6.0000    0    12.011   -2.318448   -3.161928   -5.961198
  49 C     6.0000    0    12.011   -1.256800    2.156612   -5.675131
  50 C     6.0000    0    12.011   -2.861159    4.669438   -2.360155
  51 C     6.0000    0    12.011   -5.361758    2.209260    1.660843
  52 C     6.0000    0    12.011   -5.512955   -0.057977    3.169052
  53 C     6.0000    0    12.011   -6.229596   -2.156102    1.542432
  54 C     6.0000    0    12.011   -5.653059   -2.615098   -3.065174
  55 C     6.0000    0    12.011   -4.252470   -1.415424   -5.106456
  56 C     6.0000    0    12.011   -3.717809    1.168474   -4.982943
  57 C     6.0000    0    12.011   -4.617603    2.647506   -2.879470
  58 C     6.0000    0    12.011   -5.978356    1.522496   -0.925191
  59 C     6.0000    0    12.011   -6.489149   -1.174692   -1.009548
  60 H     1.0000    0     1.008    1.910116   10.782664    8.304194
  61 C     6.0000    0    12.011   -0.047281   11.488042    8.274846
  62 H     1.0000    0     1.008   -0.268284   12.863574    9.822759
  63 H     1.0000    0     1.008    0.600820   14.377395    5.417996
  64 C     6.0000    0    12.011   -0.645190   12.752760    5.768729
  65 O     8.0000    0    15.999   -0.177200   11.076082    3.662308
  66 H     1.0000    0     1.008   -1.339457    9.899425    8.633875
  67 C     6.0000    0    12.011   -2.014316    9.474803    2.991531
  68 C     6.0000    0    12.011   -1.121912    7.902816    0.689656
  69 O     8.0000    0    15.999   -4.050968    9.323720    3.984544
  70 H     1.0000    0     1.008   -2.626322   13.379034    5.692970
  71 C     6.0000    0    12.011   -0.710083    9.829335   -1.464198
  72 H     1.0000    0     1.008   -6.845930   12.215813   -4.904954
  73 O     8.0000    0    15.999   -2.921517   10.907084   -2.045458
  74 H     1.0000    0     1.008   -2.130402   11.978861   -5.733240
  75 O     8.0000    0    15.999    1.277190   10.352751   -2.428015
  76 C     6.0000    0    12.011   -2.898764   12.820204   -3.990346
  77 C     6.0000    0    12.011   -5.578226   13.762649   -4.331706
  78 H     1.0000    0     1.008   -5.625866   15.228717   -5.808149
  79 H     1.0000    0     1.008   -6.311610   14.586324   -2.567382
  80 H     1.0000    0     1.008   -1.594475   14.337522   -3.412241

--------------------------------
INTERNAL COORDINATES (ANGSTROEM)
--------------------------------
[...]
 21 C      6.0108     6.0000    -0.0108     4.0080     4.0080     0.0000
 22 C      5.9811     6.0000     0.0189     3.9273     3.9273    -0.0000
 23 C      5.9528     6.0000     0.0472     4.0170     4.0170    -0.0000
 24 C      6.0137     6.0000    -0.0137     3.9939     3.9939     0.0000
 25 C      6.0018     6.0000    -0.0018     3.9944     3.9944     0.0000
 26 C      6.0018     6.0000    -0.0018     3.9928     3.9928    -0.0000
 27 C      5.9942     6.0000     0.0058     3.9893     3.9893     0.0000
 28 C      6.0009     6.0000    -0.0009     3.9936     3.9936    -0.0000
 29 C      5.9986     6.0000     0.0014     3.9894     3.9894    -0.0000
 30 C      6.0119     6.0000    -0.0119     3.9908     3.9908     0.0000
 31 C      5.9669     6.0000     0.0331     3.9948     3.9948    -0.0000
 32 C      6.0146     6.0000    -0.0146     3.9453     3.9453    -0.0000
 33 C      5.9648     6.0000     0.0352     4.0128     4.0128    -0.0000
 34 C      6.0300     6.0000    -0.0300     4.0018     4.0018     0.0000
 35 C      6.0006     6.0000    -0.0006     3.9933     3.9933     0.0000
 36 C      5.9980     6.0000     0.0020     3.9907     3.9907     0.0000
 37 C      5.9984     6.0000     0.0016     3.9925     3.9925     0.0000
 38 C      6.0001     6.0000    -0.0001     3.9942     3.9942    -0.0000
 39 C      5.9960     6.0000     0.0040     3.9897     3.9897     0.0000
 40 C      6.0076     6.0000    -0.0076     3.9931     3.9931     0.0000
 41 C      6.0062     6.0000    -0.0062     3.9809     3.9809    -0.0000
 42 C      6.0016     6.0000    -0.0016     3.9441     3.9441    -0.0000
 43 C      5.9227     6.0000     0.0773     3.9589     3.9589     0.0000
 44 C      6.0088     6.0000    -0.0088     3.9930     3.9930     0.0000
 45 C      6.0023     6.0000    -0.0023     3.9933     3.9933    -0.0000
 46 C      6.0048     6.0000    -0.0048     3.9973     3.9973     0.0000
 47 C      6.0003     6.0000    -0.0003     3.9919     3.9919    -0.0000
 48 C      6.0082     6.0000    -0.0082     3.9995     3.9995    -0.0000
 49 C      6.0069     6.0000    -0.0069     4.0012     4.0012    -0.0000
 50 C      5.9957     6.0000     0.0043     3.9832     3.9832    -0.0000
 51 C      6.0316     6.0000    -0.0316     4.0052     4.0052    -0.0000
 52 C      5.9982     6.0000     0.0018     3.9742     3.9742    -0.0000
 53 C      5.9936     6.0000     0.0064     3.9882     3.9882     0.0000
 54 C      5.9990     6.0000     0.0010     3.9928     3.9928    -0.0000
 55 C      6.0040     6.0000    -0.0040     3.9921     3.9921    -0.0000
 56 C      5.9809     6.0000     0.0191     3.9777     3.9777    -0.0000
 57 C      6.0095     6.0000    -0.0095     3.9850     3.9850    -0.0000
 58 C      5.9903     6.0000     0.0097     4.0025     4.0025     0.0000
 59 C      6.0012     6.0000    -0.0012     3.9993     3.9993    -0.0000
 60 H      0.9428     1.0000     0.0572     0.9908     0.9908     0.0000
 61 C      6.1039     6.0000    -0.1039     4.0127     4.0127     0.0000
 62 H      0.9477     1.0000     0.0523     0.9902     0.9902    -0.0000
 63 H      0.9473     1.0000     0.0527     0.9822     0.9822    -0.0000
 64 C      5.8613     6.0000     0.1387     3.9778     3.9778     0.0000
 65 O      8.3158     8.0000    -0.3158     2.1969     2.1969    -0.0000
 66 H      0.9372     1.0000     0.0628     1.0022     1.0022     0.0000
 67 C      5.7197     6.0000     0.2803     4.3155     4.3155    -0.0000
 68 C      6.2767     6.0000    -0.2767     3.4658     3.4658    -0.0000
 69 O      8.1783     8.0000    -0.1783     2.3216     2.3216    -0.0000
 70 H      0.9438     1.0000     0.0562     0.9983     0.9983     0.0000
 71 C      5.7161     6.0000     0.2839     4.3447     4.3447     0.0000
 72 H      0.9433     1.0000     0.0567     0.9916     0.9916    -0.0000
 73 O      8.3173     8.0000    -0.3173     2.1878     2.1878     0.0000
 74 H      0.9476     1.0000     0.0524     0.9887     0.9887     0.0000
 75 O      8.1817     8.0000    -0.1817     2.3141     2.3141    -0.0000
 76 C      5.8740     6.0000     0.1260     3.9673     3.9673    -0.0000
 77 C      6.0685     6.0000    -0.0685     3.9956     3.9956    -0.0000
 78 H      0.9524     1.0000     0.0476     0.9892     0.9892    -0.0000
 79 H      0.9452     1.0000     0.0548     0.9914     0.9914     0.0000
 80 H      0.9498     1.0000     0.0502     0.9876     0.9876    -0.0000

  Mayer bond orders larger than 0.100000
B(  0-C ,  1-C ) :   1.1875 B(  0-C ,  3-C ) :   1.4718 B(  0-C ,  4-C ) :   1.1833 
B(  1-C ,  2-C ) :   1.4734 B(  1-C ,  5-C ) :   1.1873 B(  2-C ,  6-C ) :   1.1916 
B(  2-C ,  7-C ) :   1.1870 B(  3-C ,  8-C ) :   1.1844 B(  3-C ,  9-C ) :   1.1860 
B(  4-C , 10-C ) :   1.4757 B(  4-C , 11-C ) :   1.1844 B(  5-C , 11-C ) :   1.1849 
B(  5-C , 12-C ) :   1.4730 B(  6-C , 13-C ) :   1.1901 B(  6-C , 14-C ) :   1.4671 
B(  7-C ,  9-C ) :   1.4805 B(  7-C , 15-C ) :   1.1761 B(  8-C , 16-C ) :   1.4770 
B(  8-C , 17-C ) :   1.1819 B(  9-C , 18-C ) :   1.1793 B( 10-C , 16-C ) :   1.1831 
B( 10-C , 19-C ) :   1.1851 B( 11-C , 20-C ) :   1.4770 B( 12-C , 14-C ) :   1.1712 
B( 12-C , 21-C ) :   1.1820 B( 13-C , 15-C ) :   1.1741 B( 13-C , 22-C ) :   1.4775 
B( 14-C , 23-C ) :   1.1891 B( 15-C , 24-C ) :   1.4731 B( 16-C , 25-C ) :   1.1829 
B( 17-C , 18-C ) :   1.1883 B( 17-C , 26-C ) :   1.4723 B( 18-C , 27-C ) :   1.4781 
B( 19-C , 28-C ) :   1.1835 B( 19-C , 29-C ) :   1.4741 B( 20-C , 29-C ) :   1.1836 
B( 20-C , 30-C ) :   1.1841 B( 21-C , 30-C ) :   1.4713 B( 21-C , 31-C ) :   1.1926 
B( 22-C , 32-C ) :   1.1405 B( 22-C , 33-C ) :   1.1697 B( 23-C , 31-C ) :   1.1409 
B( 23-C , 32-C ) :   1.5332 B( 24-C , 27-C ) :   1.1794 B( 24-C , 34-C ) :   1.1846 
B( 25-C , 28-C ) :   1.1842 B( 25-C , 35-C ) :   1.4762 B( 26-C , 35-C ) :   1.1820 
B( 26-C , 36-C ) :   1.1880 B( 27-C , 37-C ) :   1.1846 B( 28-C , 38-C ) :   1.4760 
B( 29-C , 39-C ) :   1.1838 B( 30-C , 40-C ) :   1.1801 B( 31-C , 41-C ) :   1.4756 
B( 32-C , 42-C ) :   0.1629 B( 32-C , 68-C ) :   0.9387 B( 33-C , 34-C ) :   1.4742 
B( 33-C , 43-C ) :   1.1607 B( 34-C , 44-C ) :   1.1796 B( 35-C , 45-C ) :   1.1842 
B( 36-C , 37-C ) :   1.4763 B( 36-C , 46-C ) :   1.1811 B( 37-C , 44-C ) :   1.1823 
B( 38-C , 47-C ) :   1.1846 B( 38-C , 48-C ) :   1.1834 B( 39-C , 40-C ) :   1.1861 
B( 39-C , 48-C ) :   1.4756 B( 40-C , 49-C ) :   1.4733 B( 41-C , 49-C ) :   1.1852 
B( 41-C , 50-C ) :   1.1471 B( 42-C , 43-C ) :   1.1527 B( 42-C , 50-C ) :   1.5129 
B( 42-C , 68-C ) :   0.9398 B( 43-C , 51-C ) :   1.4847 B( 44-C , 52-C ) :   1.4776 
B( 45-C , 46-C ) :   1.1852 B( 45-C , 47-C ) :   1.4726 B( 46-C , 53-C ) :   1.4800 
B( 47-C , 54-C ) :   1.1855 B( 48-C , 55-C ) :   1.1868 B( 49-C , 56-C ) :   1.1853 
B( 50-C , 57-C ) :   1.1837 B( 51-C , 52-C ) :   1.1693 B( 51-C , 58-C ) :   1.1887 
B( 52-C , 53-C ) :   1.1768 B( 53-C , 59-C ) :   1.1851 B( 54-C , 55-C ) :   1.1891 
B( 54-C , 59-C ) :   1.4732 B( 55-C , 56-C ) :   1.4694 B( 56-C , 57-C ) :   1.1740 
B( 57-C , 58-C ) :   1.4680 B( 58-C , 59-C ) :   1.1937 B( 60-H , 61-C ) :   0.9684 
B( 61-C , 62-H ) :   0.9676 B( 61-C , 64-C ) :   1.1038 B( 61-C , 66-H ) :   0.9681 
B( 63-H , 64-C ) :   0.9628 B( 64-C , 65-O ) :   0.8738 B( 64-C , 70-H ) :   0.9531 
B( 65-O , 67-C ) :   1.2468 B( 65-O , 68-C ) :  -0.1003 B( 67-C , 68-C ) :   0.8704 
B( 67-C , 69-O ) :   2.1495 B( 68-C , 71-C ) :   0.8830 B( 71-C , 73-O ) :   1.2439 
B( 71-C , 75-O ) :   2.1470 B( 72-H , 77-C ) :   0.9712 B( 73-O , 76-C ) :   0.8698 
B( 74-H , 76-C ) :   0.9610 B( 76-C , 77-C ) :   1.0886 B( 76-C , 80-H ) :   0.9618 
B( 77-C , 78-H ) :   0.9646 B( 77-C , 79-H ) :   0.9709 

-------
TIMINGS
-------

Total SCF time: 0 days 0 hours 1 min 37 sec 

Total time                  ....      97.606 sec
Sum of individual times     ....      97.081 sec  ( 99.5%)

SCF preparation             ....       0.998 sec  (  1.0%)
Fock matrix formation       ....      88.981 sec  ( 91.2%)
  Startup                   ....       0.110 sec  (  0.1% of F)
  Split-RI-J                ....       5.171 sec  (  5.8% of F)
  Chain of spheres X        ....      80.245 sec  ( 90.2% of F)
  XC integration            ....       3.114 sec  (  3.5% of F)
    XC Preparation          ....       0.000 sec  (  0.0% of XC)
    Basis function eval.    ....       0.865 sec  ( 27.8% of XC)
    Density eval.           ....       1.005 sec  ( 32.3% of XC)
    XC-Functional eval.     ....       0.107 sec  (  3.4% of XC)
    XC-Potential eval.      ....       0.607 sec  ( 19.5% of XC)
Diagonalization             ....       0.000 sec  (  0.0%)
Density matrix formation    ....       3.638 sec  (  3.7%)
Total Energy calculation    ....       0.154 sec  (  0.2%)
Population analysis         ....       0.242 sec  (  0.2%)
Orbital Transformation      ....       0.578 sec  (  0.6%)
Orbital Orthonormalization  ....       0.000 sec  (  0.0%)
DIIS solution               ....       2.491 sec  (  2.6%)
Finished LeanSCF after  97.8 sec

Maximum memory used throughout the entire LEANSCF-calculation: 226.9 MB


-------------------------------------------------------------------------------
                          DFT DISPERSION CORRECTION                            
                                                                               
                              DFTD3 V3.1  Rev 1                                
                              USING zero damping                               
-------------------------------------------------------------------------------
The omegaB97X-D3 functional is recognized. Fit by Chai et al.
Active option DFTDOPT                   ...         3   

molecular C6(AA) [au] = 123898.097024 


            DFT-D V3
 parameters
 s6 scaling factor         :     1.0000 
 rs6 scaling factor        :     1.2810 
 s8 scaling factor         :     1.0000 
 rs8 scaling factor        :     1.0940 
 Damping factor alpha6     :    14.0000 
 Damping factor alpha8     :    16.0000 
 ad hoc parameters k1-k3   :    16.0000     1.3333    -4.0000 

 Edisp/kcal,au: -48.390911979488  -0.077115818673 
 E6   /kcal   : -24.275305652 
 E8   /kcal   : -24.115606327 
 % E8         :  49.834990375 

-------------------------   ----------------
Dispersion correction           -0.077115819
-------------------------   ----------------


-------------------------   --------------------
FINAL SINGLE POINT ENERGY     -2857.078550740302
-------------------------   --------------------

                                *** OPTIMIZATION RUN DONE ***

--------------------------------------------------------------------------
WARNING: There was an error initializing an OpenFabrics device.

  Local host:   ga00
  Local device: mlx5_0
--------------------------------------------------------------------------


           ************************************************************
           *        Program running with 28 parallel MPI-processes    *
           *              working on a common directory               *
           ************************************************************

------------------------------------------------------------------------------
                              ORCA PROPERTY CALCULATIONS
------------------------------------------------------------------------------

GBWName                                 ... c60malonicester.gbw
Number of atoms                         ...     81
Number of basis functions               ...   1044
Max core memory                         ...   5000 MB

Electric properties:
Dipole moment                           ... YES
Quadrupole moment                       ...  NO
Static polarizability (Dipole/Dipole)   ...  NO
Static polarizability (Dipole/Quad.)    ...  NO
Static polarizability (Quad./Quad.)     ...  NO
Static polarizability (Velocity)        ...  NO

Atomic electric properties:
Dipole moment                           ...  NO
Quadrupole moment                       ...  NO
Static polarizability                   ...  NO

Choice of electric origin               ... Center of mass
Position of electric origin             ...    -0.141332     1.134036     0.115190

General magnetic properties:
Magnetizability                         ...  NO

EPR properties:
g-Tensor (aka g-matrix)                 ...  NO
Zero-Field splitting spin-orbit         ...  NO
Zero-field splitting spin-spin          ...  NO
Hyperfine couplings                     ...  NO (   0 nuclei)
Quadrupole couplings                    ...  NO (   0 nuclei)
Contact density                         ...  NO (   0 nuclei)

NMR properties:
Chemical shifts                         ...  NO (   0 nuclei)
Spin-rotation constants                 ...  NO (   0 nuclei)
Spin-spin couplings                     ...  NO (   0 nuclei,    0 pairs)

Choice of magnetic origin               ... GIAO
Position of magnetic origin             ...     0.000000     0.000000     0.000000

Properties with geometric perturbations:
SCF Hessian                             ...  NO
IR spectrum                             ...  NO
VCD spectrum                            ...  NO
X-ray spectroscopy properties:
SCF XES/XAS/RIXS spectra                ...  NO


-------------
DIPOLE MOMENT
-------------

Method             : SCF
Type of density    : Electron Density
Multiplicity       :   1
Irrep              :   0
Energy             : -2857.0014349216289702 Eh
Relativity type    : 
Basis              : AO
                                X                 Y                 Z
Electronic contribution:     10.960067079     -56.172458581      -6.817476585
Nuclear contribution   :    -11.174434484      57.627963942       7.004473160
                        -----------------------------------------
Total Dipole Moment    :     -0.214367405       1.455505361       0.186996575
                        -----------------------------------------
Magnitude (a.u.)       :      1.483043141
Magnitude (Debye)      :      3.769596090



--------------------
Rotational spectrum 
--------------------
 
Rotational constants in cm-1:             0.002428             0.001443             0.001373 
Rotational constants in MHz :            72.796164            43.274744            41.174552 

Dipole components along the rotational axes: 
x,y,z [a.u.] :    -1.480757    -0.081164     0.013694 
x,y,z [Debye]:    -3.763786    -0.206302     0.034807 

 

Dipole moment calculation done in   0.1 sec 

Maximum memory used throughout the entire PROP-calculation: 116.6 MB
[ga00:1815624] 27 more processes have sent help message help-mpi-btl-openib.txt / error in device init
[ga00:1815624] Set MCA parameter "orte_base_help_aggregate" to 0 to see all help / error messages
--------------------------------------------------------------------------
WARNING: There was an error initializing an OpenFabrics device.

  Local host:   ga00
  Local device: mlx5_0
--------------------------------------------------------------------------
[ga00:1815760] 27 more processes have sent help message help-mpi-btl-openib.txt / error in device init
[ga00:1815760] Set MCA parameter "orte_base_help_aggregate" to 0 to see all help / error messages

--------------------------------
SUGGESTED CITATIONS FOR THIS RUN
--------------------------------

Below you find a list of papers that are relevant to this ORCA run
We neither can nor want to force you to cite these papers, but we appreciate if you do
You receive ORCA, which is the product of decades of hard work by many enthusiastic individuals, for free
The only thing we kindly ask in return is that you cite our papers,
We deeply appreciate it, if you show your appreciation for ORCA by not just citing the generic ORCA reference.

Please note that relegating all ORCA citations to the supporting information does *not* help us.
SI sections are not indexed - citations you put there will not count into any citation statistics
But we need these citations in order to attract the funding resources that allow us to do what we are doing

Therefore, if you are a happy ORCA user, please consider citing a few of the papers listed below in the main body of your paper

In addition to the list printed below, the program has created the file c60malonicester.bibtex that contains the list in bibtex format
You can import this file easily into all common literature databanks and citation aid programs


List of essential papers. We consider these as the minimum necessary citations

  1. Neese,F.
     Software update: the ORCA program system, version 5.0
     WIRES Comput. Molec. Sci., 2022 12(1)e1606
     doi.org/10.1002/wcms.1606

List of papers to cite with high priority. The work reported in these papers was absolutely
necessary for this run to complete.
Our perspective: the developers of density functionals and basis sets usually get cited in chemistry papers
Good! But without the algorithms to do something with them, the functionals or basis sets would not do anything.
Hence, in our opinion, the algorithm design and method developments papers are equally worthy of getting cited

  1. Neese,F.
     An improvement of the resolution of the identity approximation for the formation of the Coulomb matrix
     J. Comp. Chem., 2003 24(14)1740-1747
     doi.org/10.1002/jcc.10318
  2. Neese,F.; Wennmohs,F.; Hansen,A.; Becker,U.
     Efficient, approximate and parallel Hartree-Fock and hybrid DFT calculations. A 'chain-of-spheres' algorithm for the Hartree-Fock exchange
     Chem. Phys., 2009 356(1-3)98-109
     doi.org/10.1016/j.chemphys.2008.10.036
  3. Helmich-Paris,B.; de Souza,B.; Neese,F.; Izsák,R.
     An improved chain of spheres for exchange algorithm
     J. Chem. Phys., 2021 155 104109
     doi.org/doi: 10.1063/5.0058766.
  4. Neese,F.
     The SHARK Integral Generation and Digestion System
     J. Comp. Chem., 2022  1-16
     doi.org/10.1002/jcc.26942
  5. Grimme,S.; Antony,J.; Ehrlich,S.; Krieg,H.
     A consistent and accurate ab initio parametrization of density functional dispersion correction (DFT-D) for the 94 elements H-Pu
     J. Chem. Phys., 2010 132 154104
     doi.org/10.1063/1.3382344

List of suggested additional citations. These are papers that are important in the 'surrounding' of 
of this run, or papers that preceded the highly important papers. If you like your results we are grateful for a citation.

  1. Izsak,R.; Neese,F.
     An overlap fitted chain of spheres exchange method
     J. Chem. Phys., 2011 135 144105
     doi.org/10.1063/1.3646921
  2. Izsak,R.; Hansen,A.; Neese,F.
     The resolution of identity and chain of spheres approximations for the LPNO-CCSD singles Fock term
     Molec. Phys., 2012 110 2413-2417
     doi.org/10.1080/00268976.2012.687466
  3. Neese,F.
     The ORCA program system
     WIRES Comput. Molec. Sci., 2012 2(1)73-78
     doi.org/10.1002/wcms.81
  4. Izsak,R.; Neese,F.; Klopper,W.
     Robust fitting techniques in the chain of spheres approximation to the Fock exchange: The role of the complementary space
     J. Chem. Phys., 2013 139 
     doi.org/10.1063/1.4819264
  5. Neese,F.
     Software update: the ORCA program system, version 4.0
     WIRES Comput. Molec. Sci., 2018 8(1)1-6
     doi.org/10.1002/wcms.1327
  6. Neese,F.; Wennmohs,F.; Becker,U.; Riplinger,C.
     The ORCA quantum chemistry program package
     J. Chem. Phys., 2020 152 Art. No. L224108
     doi.org/10.1063/5.0004608

Timings for individual modules:

Sum of individual times          ...     1167.731 sec (=  19.462 min)
Startup calculation              ...       54.907 sec (=   0.915 min)   4.7 %
SCF iterations                   ...      845.370 sec (=  14.090 min)  72.4 %
Property calculations            ...        1.273 sec (=   0.021 min)   0.1 %
SCF Gradient evaluation          ...      265.019 sec (=   4.417 min)  22.7 %
Geometry relaxation              ...        1.162 sec (=   0.019 min)   0.1 %
                             ****ORCA TERMINATED NORMALLY****
TOTAL RUN TIME: 0 days 0 hours 19 minutes 35 seconds 634 msec
