--------------------------------------------------------------------------
By default, for Open MPI 4.0 and later, infiniband ports on a device
are not used by default.  The intent is to use UCX for these devices.
You can override this policy by setting the btl_openib_allow_ib MCA parameter
to true.

  Local host:              psid01
  Local adapter:           mlx5_0
  Local port:              1

--------------------------------------------------------------------------
--------------------------------------------------------------------------
WARNING: There was an error initializing an OpenFabrics device.

  Local host:   psid01
  Local device: mlx5_0
--------------------------------------------------------------------------

     Program PWSCF v.7.3.1 starts on 10Feb2025 at 11:59:55 

     This program is part of the open-source Quantum ESPRESSO suite
     for quantum simulation of materials; please cite
         "P. Giannozzi et al., J. Phys.:Condens. Matter 21 395502 (2009);
         "P. Giannozzi et al., J. Phys.:Condens. Matter 29 465901 (2017);
         "P. Giannozzi et al., J. Chem. Phys. 152 154105 (2020);
          URL http://www.quantum-espresso.org", 
     in publications or presentations arising from this work. More details at
     http://www.quantum-espresso.org/quote

     Parallel version (MPI), running on     4 processors

     MPI processes distributed on     1 nodes
     97599 MiB available memory on the printing compute node when the environment starts

     Waiting for input...
     Reading input from standard input

     Current dimensions of program PWSCF are:
     Max number of different atomic species (ntypx) = 10
     Max number of k-points (npk) =  40000
     Max angular momentum in pseudopotentials (lmaxx) =  4
     file O.pbe-n-kjpaw_psl.0.1.UPF: wavefunction(s)  2P renormalized

     gamma-point specific algorithms are used

     R & G space division:  proc/nbgrp/npool/nimage =       4
     Subspace diagonalization in iterative solution of the eigenvalue problem:
     a serial algorithm will be used


     Parallelization info
     --------------------
     sticks:   dense  smooth     PW     G-vecs:    dense   smooth      PW
     Min        3593    1595    398               324502    96144   11982
     Max        3596    1598    400               324512    96150   11987
     Sum       14377    6385   1597              1298023   384587   47937

     Using Slab Decomposition



     bravais-lattice index     =            1
     lattice parameter (alat)  =      28.3459  a.u.
     unit-cell volume          =   22775.6289 (a.u.)^3
     number of atoms/cell      =            3
     number of atomic types    =            2
     number of electrons       =         8.00
     number of Kohn-Sham states=            4
     kinetic-energy cutoff     =      25.0000  Ry
     charge density cutoff     =     225.0000  Ry
     scf convergence threshold =      1.0E-06
     mixing beta               =       0.7000
     number of iterations used =            8  plain     mixing
     Exchange-correlation= PBE
                           (   1   4   3   4   0   0   0)

     celldm(1)=  28.345892  celldm(2)=   0.000000  celldm(3)=   0.000000
     celldm(4)=   0.000000  celldm(5)=   0.000000  celldm(6)=   0.000000

     crystal axes: (cart. coord. in units of alat)
               a(1) = (   1.000000   0.000000   0.000000 )  
               a(2) = (   0.000000   1.000000   0.000000 )  
               a(3) = (   0.000000   0.000000   1.000000 )  

     reciprocal axes: (cart. coord. in units 2 pi/alat)
               b(1) = (  1.000000  0.000000  0.000000 )  
               b(2) = (  0.000000  1.000000  0.000000 )  
               b(3) = (  0.000000  0.000000  1.000000 )  


     PseudoPot. # 1 for O  read from file:
     /home/ys/qe-7.3.1/pseudo/Standard_solid-state_pseudopotentials_SSSP_1.3.0_PBE_efficiency/O.pbe-n-kjpaw_psl.0.1.UPF
     MD5 check sum: 0234752ac141de4415c5fc33072bef88
     Pseudo is Projector augmented-wave + core cor, Zval =  6.0
     Generated using "atomic" code by A. Dal Corso  v.5.0.99 svn rev. 10869
     Shape of augmentation charge: BESSEL
     Using radial grid of 1095 points,  4 beta functions with: 
                l(1) =   0
                l(2) =   0
                l(3) =   1
                l(4) =   1
     Q(r) pseudized with 0 coefficients 


     PseudoPot. # 2 for H  read from file:
     /home/ys/qe-7.3.1/pseudo/Standard_solid-state_pseudopotentials_SSSP_1.3.0_PBE_efficiency/H.pbe-rrkjus_psl.1.0.0.UPF
     MD5 check sum: f52b6d4d1c606e5624b1dc7b2218f220
     Pseudo is Ultrasoft, Zval =  1.0
     Generated using "atomic" code by A. Dal Corso  v.5.1
     Using radial grid of  929 points,  2 beta functions with: 
                l(1) =   0
                l(2) =   0
     Q(r) pseudized with 0 coefficients 


     atomic species   valence    mass     pseudopotential
     O                 6.00    15.99940     O ( 1.00)
     H                 1.00     1.00794     H ( 1.00)

     No symmetry found



   Cartesian axes

     site n.     atom                  positions (alat units)
         1        O      tau(   1) = (   0.0285190   0.0666768   0.0782520  )
         2        H      tau(   2) = (   0.0931294   0.0652227   0.0756882  )
         3        H      tau(   3) = (   0.0097643   0.0361475   0.0244086  )

     number of k points=     1
                       cart. coord. in units 2pi/alat
        k(    1) = (   0.0000000   0.0000000   0.0000000), wk =   2.0000000

     Dense  grid:   649012 G-vectors     FFT dimensions: ( 135, 135, 135)

     Smooth grid:   192294 G-vectors     FFT dimensions: (  96,  96,  96)

     Estimated max dynamical RAM per process >     227.66 MB

     Estimated total dynamical RAM >     910.63 MB

     Initial potential from superposition of free atoms

     starting charge       8.0000, renormalised to       8.0000

     negative rho (up, down):  4.198E-03 0.000E+00
     Starting wfcs are    6 randomized atomic wfcs
     Checking if some PAW data can be deallocated... 

     total cpu time spent up to now is        1.0 secs

     Self-consistent Calculation

     iteration #  1     ecut=    25.00 Ry     beta= 0.70
     Davidson diagonalization with overlap
     ethr =  1.00E-02,  avg # of iterations =  2.0

     negative rho (up, down):  3.800E-03 0.000E+00

     total cpu time spent up to now is        1.8 secs

     total energy              =     -43.68073717 Ry
     estimated scf accuracy    <       0.32896681 Ry

     iteration #  2     ecut=    25.00 Ry     beta= 0.70
     Davidson diagonalization with overlap
     ethr =  4.11E-03,  avg # of iterations =  2.0

     negative rho (up, down):  5.479E-03 0.000E+00

     total cpu time spent up to now is        2.7 secs

     total energy              =     -43.75262909 Ry
     estimated scf accuracy    <       0.24257699 Ry

     iteration #  3     ecut=    25.00 Ry     beta= 0.70
     Davidson diagonalization with overlap
     ethr =  3.03E-03,  avg # of iterations =  2.0

     negative rho (up, down):  2.863E-03 0.000E+00

     total cpu time spent up to now is        3.5 secs

     total energy              =     -43.80054039 Ry
     estimated scf accuracy    <       0.00358065 Ry

     iteration #  4     ecut=    25.00 Ry     beta= 0.70
     Davidson diagonalization with overlap
     ethr =  4.48E-05,  avg # of iterations =  2.0

     negative rho (up, down):  2.847E-03 0.000E+00

     total cpu time spent up to now is        4.4 secs

     total energy              =     -43.80111680 Ry
     estimated scf accuracy    <       0.00057466 Ry

     iteration #  5     ecut=    25.00 Ry     beta= 0.70
     Davidson diagonalization with overlap
     ethr =  7.18E-06,  avg # of iterations =  1.0

     negative rho (up, down):  2.859E-03 0.000E+00
[psid01:156281] 3 more processes have sent help message help-mpi-btl-openib.txt / ib port not selected
[psid01:156281] Set MCA parameter "orte_base_help_aggregate" to 0 to see all help / error messages
[psid01:156281] 3 more processes have sent help message help-mpi-btl-openib.txt / error in device init

     total cpu time spent up to now is        5.2 secs

     total energy              =     -43.80110412 Ry
     estimated scf accuracy    <       0.00010702 Ry

     iteration #  6     ecut=    25.00 Ry     beta= 0.70
     Davidson diagonalization with overlap
     ethr =  1.34E-06,  avg # of iterations =  2.0

     negative rho (up, down):  2.852E-03 0.000E+00

     total cpu time spent up to now is        6.0 secs

     total energy              =     -43.80112329 Ry
     estimated scf accuracy    <       0.00000320 Ry

     iteration #  7     ecut=    25.00 Ry     beta= 0.70
     Davidson diagonalization with overlap
     ethr =  4.00E-08,  avg # of iterations =  3.0

     negative rho (up, down):  2.847E-03 0.000E+00

     total cpu time spent up to now is        6.9 secs

     total energy              =     -43.80112447 Ry
     estimated scf accuracy    <       0.00000327 Ry

     iteration #  8     ecut=    25.00 Ry     beta= 0.70
     Davidson diagonalization with overlap
     ethr =  4.00E-08,  avg # of iterations =  1.0

     negative rho (up, down):  2.844E-03 0.000E+00

     total cpu time spent up to now is        7.6 secs

     End of self-consistent calculation

          k = 0.0000 0.0000 0.0000 ( 23969 PWs)   bands (ev):

   -25.7719 -13.0505  -9.3522  -7.1800

     highest occupied level (ev):    -7.1800

!    total energy              =     -43.80112403 Ry
     estimated scf accuracy    <       0.00000073 Ry

     The total energy is the sum of the following terms:
     one-electron contribution =     -68.80662545 Ry
     hartree contribution      =      35.92522726 Ry
     xc contribution           =      -8.77896733 Ry
     ewald contribution        =       7.38497769 Ry
     one-center paw contrib.   =      -9.52573620 Ry

     convergence has been achieved in   8 iterations

     Writing all to output data dir /home/ys/Research/PSID_server_room/qe/water_relax/pwscf.save/ :
     XML data file, charge density, pseudopotentials, collected wavefunctions

     init_run     :      0.78s CPU      0.89s WALL (       1 calls)
     electrons    :      6.10s CPU      6.75s WALL (       1 calls)

     Called by init_run:
     wfcinit      :      0.03s CPU      0.03s WALL (       1 calls)
     potinit      :      0.35s CPU      0.42s WALL (       1 calls)
     hinit0       :      0.13s CPU      0.15s WALL (       1 calls)

     Called by electrons:
     c_bands      :      0.36s CPU      0.38s WALL (       8 calls)
     sum_band     :      1.26s CPU      1.44s WALL (       8 calls)
     v_of_rho     :      2.79s CPU      3.05s WALL (       9 calls)
     newd         :      1.15s CPU      1.33s WALL (       9 calls)
     PAW_pot      :      0.18s CPU      0.18s WALL (       9 calls)
     mix_rho      :      0.44s CPU      0.46s WALL (       8 calls)

     Called by c_bands:
     init_us_2    :      0.02s CPU      0.02s WALL (      17 calls)
     regterg      :      0.35s CPU      0.36s WALL (       8 calls)

     Called by *egterg:
     rdiaghg      :      0.00s CPU      0.00s WALL (      23 calls)
     h_psi        :      0.33s CPU      0.35s WALL (      24 calls)
     s_psi        :      0.00s CPU      0.00s WALL (      24 calls)
     g_psi        :      0.00s CPU      0.00s WALL (      15 calls)

     Called by h_psi:
     h_psi:calbec :      0.01s CPU      0.02s WALL (      24 calls)
     vloc_psi     :      0.31s CPU      0.33s WALL (      24 calls)
     add_vuspsi   :      0.00s CPU      0.00s WALL (      24 calls)

     General routines
     calbec       :      0.02s CPU      0.02s WALL (      32 calls)
     fft          :      2.20s CPU      2.37s WALL (      97 calls)
     ffts         :      0.10s CPU      0.10s WALL (      17 calls)
     fftw         :      0.30s CPU      0.31s WALL (     112 calls)
     interpolate  :      0.28s CPU      0.30s WALL (       9 calls)

     Parallel routines

     PWSCF        :      6.96s CPU      7.78s WALL


   This run was terminated on:  12: 0: 3  10Feb2025            

=------------------------------------------------------------------------------=
   JOB DONE.
=------------------------------------------------------------------------------=
