--------------------------------------------------------------------------
By default, for Open MPI 4.0 and later, infiniband ports on a device
are not used by default.  The intent is to use UCX for these devices.
You can override this policy by setting the btl_openib_allow_ib MCA parameter
to true.

  Local host:              psid02
  Local adapter:           mlx5_0
  Local port:              1

--------------------------------------------------------------------------
--------------------------------------------------------------------------
WARNING: There was an error initializing an OpenFabrics device.

  Local host:   psid02
  Local device: mlx5_0
--------------------------------------------------------------------------

     Program PWSCF v.7.3.1 starts on 11Feb2025 at 13:41:25 

     This program is part of the open-source Quantum ESPRESSO suite
     for quantum simulation of materials; please cite
         "P. Giannozzi et al., J. Phys.:Condens. Matter 21 395502 (2009);
         "P. Giannozzi et al., J. Phys.:Condens. Matter 29 465901 (2017);
         "P. Giannozzi et al., J. Chem. Phys. 152 154105 (2020);
          URL http://www.quantum-espresso.org", 
     in publications or presentations arising from this work. More details at
     http://www.quantum-espresso.org/quote

     Parallel version (MPI), running on    30 processors

     MPI processes distributed on     1 nodes
     91484 MiB available memory on the printing compute node when the environment starts

     Waiting for input...
     Reading input from standard input
Warning: card &CELL ignored
Warning: card / ignored

     Current dimensions of program PWSCF are:
     Max number of different atomic species (ntypx) = 10
     Max number of k-points (npk) =  40000
     Max angular momentum in pseudopotentials (lmaxx) =  4
     file C.pbe-n-kjpaw_psl.1.0.0.UPF: wavefunction(s)  2S 2P renormalized

     gamma-point specific algorithms are used

     R & G space division:  proc/nbgrp/npool/nimage =      30
     Subspace diagonalization in iterative solution of the eigenvalue problem:
     one sub-group per band group will be used
     custom distributed-memory algorithm (size of sub-group:  5*  5 procs)


     Parallelization info
     --------------------
     sticks:   dense  smooth     PW     G-vecs:    dense   smooth      PW
     Min         447     178     44               100040    25294    3148
     Max         452     180     46               100062    25324    3174
     Sum       13471    5389   1345              3001349   759343   94917

     Using Slab Decomposition



     bravais-lattice index     =            4
     lattice parameter (alat)  =      19.7616  a.u.
     unit-cell volume          =   15896.6765 (a.u.)^3
     number of atoms/cell      =           79
     number of atomic types    =            4
     number of electrons       =      1324.00
     number of Kohn-Sham states=          794
     kinetic-energy cutoff     =      50.0000  Ry
     charge density cutoff     =     500.0000  Ry
     scf convergence threshold =      1.0E-06
     mixing beta               =       0.7000
     number of iterations used =            8  plain     mixing
     energy convergence thresh.=      1.0E-04
     force convergence thresh. =      1.0E-03
     Exchange-correlation= PBE
                           (   1   4   3   4   0   0   0)
     nstep                     =          100


     celldm(1)=  19.761622  celldm(2)=   0.000000  celldm(3)=   2.378526
     celldm(4)=   0.000000  celldm(5)=   0.000000  celldm(6)=   0.000000

     crystal axes: (cart. coord. in units of alat)
               a(1) = (   1.000000   0.000000   0.000000 )  
               a(2) = (  -0.500000   0.866025   0.000000 )  
               a(3) = (   0.000000   0.000000   2.378526 )  

     reciprocal axes: (cart. coord. in units 2 pi/alat)
               b(1) = (  1.000000  0.577350 -0.000000 )  
               b(2) = (  0.000000  1.154701  0.000000 )  
               b(3) = (  0.000000 -0.000000  0.420428 )  


     PseudoPot. # 1 for Zn read from file:
     /home/ys/qe-7.3.1/pseudo/Standard_solid-state_pseudopotentials_SSSP_1.3.0_PBE_efficiency/Zn_pbe_v1.uspp.F.UPF
     MD5 check sum: df62231357ef9e81f77b2b3087fa5675
     Pseudo is Ultrasoft, Zval = 20.0
     Generated by new atomic code, or converted to UPF format
     Using radial grid of  943 points,  6 beta functions with: 
                l(1) =   0
                l(2) =   0
                l(3) =   1
                l(4) =   1
                l(5) =   2
                l(6) =   2
     Q(r) pseudized with  8 coefficients,  rinner =    1.100   1.100   1.100
                                                       1.100   1.100

     PseudoPot. # 2 for C  read from file:
     /home/ys/qe-7.3.1/pseudo/Standard_solid-state_pseudopotentials_SSSP_1.3.0_PBE_efficiency/C.pbe-n-kjpaw_psl.1.0.0.UPF
     MD5 check sum: 5d2aebdfa2cae82b50a7e79e9516da0f
     Pseudo is Projector augmented-wave + core cor, Zval =  4.0
     Generated using "atomic" code by A. Dal Corso  v.5.1
     Shape of augmentation charge: PSQ
     Using radial grid of 1073 points,  4 beta functions with: 
                l(1) =   0
                l(2) =   0
                l(3) =   1
                l(4) =   1
     Q(r) pseudized with 0 coefficients 


     PseudoPot. # 3 for N  read from file:
     /home/ys/qe-7.3.1/pseudo/Standard_solid-state_pseudopotentials_SSSP_1.3.0_PBE_efficiency/N.pbe-n-radius_5.UPF
     MD5 check sum: 16739722b17309cd8fe442a2ace49922
     Pseudo is Ultrasoft + core correction, Zval =  5.0
     Generated using "atomic" code by A. Dal Corso  v.5.1
     Using radial grid of 1085 points,  4 beta functions with: 
                l(1) =   0
                l(2) =   0
                l(3) =   1
                l(4) =   1
     Q(r) pseudized with 0 coefficients 


     PseudoPot. # 4 for H  read from file:
     /home/ys/qe-7.3.1/pseudo/Standard_solid-state_pseudopotentials_SSSP_1.3.0_PBE_efficiency/H.pbe-rrkjus_psl.1.0.0.UPF
     MD5 check sum: f52b6d4d1c606e5624b1dc7b2218f220
     Pseudo is Ultrasoft, Zval =  1.0
     Generated using "atomic" code by A. Dal Corso  v.5.1
     Using radial grid of  929 points,  2 beta functions with: 
                l(1) =   0
                l(2) =   0
     Q(r) pseudized with 0 coefficients 


     atomic species   valence    mass     pseudopotential
     Zn               20.00    65.39000     Zn( 1.00)
     C                 4.00    12.01070     C ( 1.00)
     N                 5.00    14.00674     N ( 1.00)
     H                 1.00     1.00794     H ( 1.00)

     No symmetry found



   Cartesian axes

     site n.     atom                  positions (alat units)
         1        Zn     tau(   1) = (  -0.0000015   0.1443384   0.1165000  )
         2        Zn     tau(   2) = (  -0.1250010   0.3608456   0.1165000  )
         3        Zn     tau(   3) = (  -0.2500014   0.5773528   0.1165000  )
         4        Zn     tau(   4) = (  -0.3750030   0.7938599   0.1165000  )
         5        Zn     tau(   5) = (   0.2499994   0.1443384   0.1165000  )
         6        Zn     tau(   6) = (   0.1250000   0.3608456   0.1165000  )
         7        Zn     tau(   7) = (  -0.0000005   0.5773528   0.1165000  )
         8        Zn     tau(   8) = (  -0.1250020   0.7938599   0.1165000  )
         9        Zn     tau(   9) = (   0.5000004   0.1443384   0.1165000  )
        10        Zn     tau(  10) = (   0.3750010   0.3608456   0.1165000  )
        11        Zn     tau(  11) = (   0.2500005   0.5773528   0.1165000  )
        12        Zn     tau(  12) = (   0.1249989   0.7938599   0.1165000  )
        13        Zn     tau(  13) = (   0.7500013   0.1443384   0.1165000  )
        14        Zn     tau(  14) = (   0.6250019   0.3608456   0.1165000  )
        15        Zn     tau(  15) = (   0.5000014   0.5773528   0.1165000  )
        16        Zn     tau(  16) = (   0.3749999   0.7938599   0.1165000  )
        17        Zn     tau(  17) = (  -0.0000015   0.1443384   0.3495001  )
        18        Zn     tau(  18) = (  -0.1250010   0.3608456   0.3495001  )
        19        Zn     tau(  19) = (  -0.2500014   0.5773528   0.3495001  )
        20        Zn     tau(  20) = (  -0.3750030   0.7938599   0.3495001  )
        21        Zn     tau(  21) = (   0.2499994   0.1443384   0.3495001  )
        22        Zn     tau(  22) = (   0.1250000   0.3608456   0.3495001  )
        23        Zn     tau(  23) = (  -0.0000005   0.5773528   0.3495001  )
        24        Zn     tau(  24) = (  -0.1250020   0.7938599   0.3495001  )
        25        Zn     tau(  25) = (   0.5000004   0.1443384   0.3495001  )
        26        Zn     tau(  26) = (   0.3750010   0.3608456   0.3495001  )
        27        Zn     tau(  27) = (   0.2500005   0.5773528   0.3495001  )
        28        Zn     tau(  28) = (   0.1249989   0.7938599   0.3495001  )
        29        Zn     tau(  29) = (   0.7500013   0.1443384   0.3495001  )
        30        Zn     tau(  30) = (   0.6250019   0.3608456   0.3495001  )
        31        Zn     tau(  31) = (   0.5000014   0.5773528   0.3495001  )
        32        Zn     tau(  32) = (   0.3749999   0.7938599   0.3495001  )
        33        Zn     tau(  33) = (   0.1250020   0.0721688   0.1165000  )
        34        Zn     tau(  34) = (   0.0000005   0.2886760   0.1165000  )
        35        Zn     tau(  35) = (  -0.1250000   0.5051831   0.1165000  )
        36        Zn     tau(  36) = (  -0.2500000   0.7216894   0.1165000  )
        37        Zn     tau(  37) = (   0.3750030   0.0721688   0.1165000  )
        38        Zn     tau(  38) = (   0.2500014   0.2886760   0.1165000  )
        39        Zn     tau(  39) = (   0.1250010   0.5051831   0.1165000  )
        40        Zn     tau(  40) = (   0.0000010   0.7216894   0.1165000  )
        41        Zn     tau(  41) = (   0.6250039   0.0721688   0.1165000  )
        42        Zn     tau(  42) = (   0.5000024   0.2886760   0.1165000  )
        43        Zn     tau(  43) = (   0.3750019   0.5051831   0.1165000  )
        44        Zn     tau(  44) = (   0.2500019   0.7216894   0.1165000  )
        45        Zn     tau(  45) = (   0.8750049   0.0721688   0.1165000  )
        46        Zn     tau(  46) = (   0.7500033   0.2886760   0.1165000  )
        47        Zn     tau(  47) = (   0.6250029   0.5051831   0.1165000  )
        48        Zn     tau(  48) = (   0.5000029   0.7216894   0.1165000  )
        49        Zn     tau(  49) = (   0.1250020   0.0721688   0.3495001  )
        50        Zn     tau(  50) = (   0.0000005   0.2886760   0.3495001  )
        51        Zn     tau(  51) = (  -0.1250000   0.5051831   0.3495001  )
        52        Zn     tau(  52) = (  -0.2500000   0.7216894   0.3495001  )
        53        Zn     tau(  53) = (   0.3750030   0.0721688   0.3495001  )
        54        Zn     tau(  54) = (   0.2500014   0.2886760   0.3495001  )
        55        Zn     tau(  55) = (   0.1250010   0.5051831   0.3495001  )
        56        Zn     tau(  56) = (   0.0000010   0.7216894   0.3495001  )
        57        Zn     tau(  57) = (   0.6250039   0.0721688   0.3495001  )
        58        Zn     tau(  58) = (   0.5000024   0.2886760   0.3495001  )
        59        Zn     tau(  59) = (   0.3750019   0.5051831   0.3495001  )
        60        Zn     tau(  60) = (   0.2500019   0.7216894   0.3495001  )
        61        Zn     tau(  61) = (   0.8750049   0.0721688   0.3495001  )
        62        Zn     tau(  62) = (   0.7500033   0.2886760   0.3495001  )
        63        Zn     tau(  63) = (   0.6250029   0.5051831   0.3495001  )
        64        Zn     tau(  64) = (   0.5000029   0.7216894   0.3495001  )
        65        C      tau(  65) = (   0.3186502   0.2218142   1.0778822  )
        66        C      tau(  66) = (   0.3294533   0.2468529   0.9444685  )
        67        C      tau(  67) = (   0.2288914   0.3061351   0.8771967  )
        68        C      tau(  68) = (   0.4409367   0.2128837   0.8768661  )
        69        C      tau(  69) = (   0.2393024   0.3305519   0.7473936  )
        70        C      tau(  70) = (   0.4515443   0.2372027   0.7470606  )
        71        C      tau(  71) = (   0.3509118   0.2966088   0.6794249  )
        72        N      tau(  72) = (   0.3097962   0.2012720   1.1872799  )
        73        N      tau(  73) = (   0.3612854   0.3206524   0.5511679  )
        74        H      tau(  74) = (   0.2896961   0.3632020   0.5024772  )
        75        H      tau(  75) = (   0.4408931   0.2967041   0.5022298  )
        76        H      tau(  76) = (   0.5195215   0.1669677   0.9275643  )
        77        H      tau(  77) = (   0.1420751   0.3329750   0.9281637  )
        78        H      tau(  78) = (   0.5386631   0.2101956   0.6963029  )
        79        H      tau(  79) = (   0.1603821   0.3765588   0.6969023  )

     number of k points=     1  Gaussian smearing, width (Ry)=  0.0100
                       cart. coord. in units 2pi/alat
        k(    1) = (   0.0000000   0.0000000   0.0000000), wk =   2.0000000

     Dense  grid:  1500675 G-vectors     FFT dimensions: ( 144, 144, 360)

     Smooth grid:   379672 G-vectors     FFT dimensions: (  90,  90, 216)

     Estimated max dynamical RAM per process >     385.95 MB

     Estimated total dynamical RAM >      11.31 GB

     Initial potential from superposition of free atoms

     starting charge    1323.9906, renormalised to    1324.0000

     negative rho (up, down):  1.501E-03 0.000E+00
     Starting wfcs are  874 randomized atomic wfcs
[psid02:195884] 29 more processes have sent help message help-mpi-btl-openib.txt / ib port not selected
[psid02:195884] Set MCA parameter "orte_base_help_aggregate" to 0 to see all help / error messages
[psid02:195884] 29 more processes have sent help message help-mpi-btl-openib.txt / error in device init
     Checking if some PAW data can be deallocated... 

     total cpu time spent up to now is       19.8 secs

     Self-consistent Calculation

     iteration #  1     ecut=    50.00 Ry     beta= 0.70
     Davidson diagonalization with overlap
     ethr =  1.00E-02,  avg # of iterations =  8.0

     Threshold (ethr) on eigenvalues was too large:
     Diagonalizing with lowered threshold

     Davidson diagonalization with overlap
     ethr =  8.41E-04,  avg # of iterations =  2.0

     negative rho (up, down):  1.096E-03 0.000E+00

     total cpu time spent up to now is      152.6 secs

     total energy              =  -29627.35049544 Ry
     estimated scf accuracy    <      11.15312910 Ry

     iteration #  2     ecut=    50.00 Ry     beta= 0.70
     Davidson diagonalization with overlap
     ethr =  8.42E-04,  avg # of iterations =  8.0

     negative rho (up, down):  2.338E-03 0.000E+00

     total cpu time spent up to now is      225.0 secs

     total energy              =  -29593.12400551 Ry
     estimated scf accuracy    <     728.62467931 Ry

     iteration #  3     ecut=    50.00 Ry     beta= 0.70
     Davidson diagonalization with overlap
     ethr =  8.42E-04,  avg # of iterations =  9.0

     negative rho (up, down):  1.786E-03 0.000E+00

     total cpu time spent up to now is      347.5 secs

     total energy              =  -29631.04877452 Ry
     estimated scf accuracy    <      42.19108956 Ry

     iteration #  4     ecut=    50.00 Ry     beta= 0.70
     Davidson diagonalization with overlap
     ethr =  8.42E-04,  avg # of iterations =  6.0

     negative rho (up, down):  1.510E-03 0.000E+00

     total cpu time spent up to now is      410.2 secs

     total energy              =  -29633.82274592 Ry
     estimated scf accuracy    <      16.95858767 Ry

     iteration #  5     ecut=    50.00 Ry     beta= 0.70
     Davidson diagonalization with overlap
     ethr =  8.42E-04,  avg # of iterations =  3.0

     negative rho (up, down):  1.439E-03 0.000E+00

     total cpu time spent up to now is      468.2 secs

     total energy              =  -29634.90775724 Ry
     estimated scf accuracy    <       0.63694360 Ry

     iteration #  6     ecut=    50.00 Ry     beta= 0.70
     Davidson diagonalization with overlap
     ethr =  4.81E-05,  avg # of iterations = 11.0

     negative rho (up, down):  1.494E-03 0.000E+00

     total cpu time spent up to now is      537.3 secs

     total energy              =  -29634.87278901 Ry
     estimated scf accuracy    <       1.01335695 Ry

     iteration #  7     ecut=    50.00 Ry     beta= 0.70
     Davidson diagonalization with overlap
     ethr =  4.81E-05,  avg # of iterations =  3.0

     negative rho (up, down):  1.529E-03 0.000E+00

     total cpu time spent up to now is      596.4 secs

     total energy              =  -29634.98838082 Ry
     estimated scf accuracy    <       0.25034390 Ry

     iteration #  8     ecut=    50.00 Ry     beta= 0.70
     Davidson diagonalization with overlap
     ethr =  1.89E-05,  avg # of iterations =  3.0

     negative rho (up, down):  1.574E-03 0.000E+00

     total cpu time spent up to now is      655.0 secs

     total energy              =  -29635.01050646 Ry
     estimated scf accuracy    <       0.03011008 Ry

     iteration #  9     ecut=    50.00 Ry     beta= 0.70
     Davidson diagonalization with overlap
     ethr =  2.27E-06,  avg # of iterations = 16.0

     negative rho (up, down):  1.583E-03 0.000E+00

     total cpu time spent up to now is      721.9 secs

     total energy              =  -29635.01022276 Ry
     estimated scf accuracy    <       0.03814061 Ry

     iteration # 10     ecut=    50.00 Ry     beta= 0.70
     Davidson diagonalization with overlap
     ethr =  2.27E-06,  avg # of iterations =  2.0

     negative rho (up, down):  1.587E-03 0.000E+00

     total cpu time spent up to now is      780.0 secs

     total energy              =  -29635.01275604 Ry
     estimated scf accuracy    <       0.01527824 Ry

     iteration # 11     ecut=    50.00 Ry     beta= 0.70
     Davidson diagonalization with overlap
     ethr =  1.15E-06,  avg # of iterations =  2.0

     negative rho (up, down):  1.627E-03 0.000E+00

     total cpu time spent up to now is      836.1 secs

     total energy              =  -29635.00844383 Ry
     estimated scf accuracy    <       0.00777373 Ry

     iteration # 12     ecut=    50.00 Ry     beta= 0.70
     Davidson diagonalization with overlap
     ethr =  5.87E-07,  avg # of iterations = 18.0

     negative rho (up, down):  1.615E-03 0.000E+00

     total cpu time spent up to now is      908.0 secs

     total energy              =  -29635.00839860 Ry
     estimated scf accuracy    <       0.01321082 Ry

     iteration # 13     ecut=    50.00 Ry     beta= 0.70
     Davidson diagonalization with overlap
     ethr =  5.87E-07,  avg # of iterations =  2.0

     negative rho (up, down):  1.601E-03 0.000E+00

     total cpu time spent up to now is      967.0 secs

     total energy              =  -29635.00909092 Ry
     estimated scf accuracy    <       0.01149999 Ry

     iteration # 14     ecut=    50.00 Ry     beta= 0.70
     Davidson diagonalization with overlap
     ethr =  5.87E-07,  avg # of iterations =  8.0

     negative rho (up, down):  1.609E-03 0.000E+00

     total cpu time spent up to now is     1027.5 secs

     total energy              =  -29635.00832531 Ry
     estimated scf accuracy    <       0.04345965 Ry

     iteration # 15     ecut=    50.00 Ry     beta= 0.70
     Davidson diagonalization with overlap
     ethr =  5.87E-07,  avg # of iterations =  3.0

     negative rho (up, down):  1.602E-03 0.000E+00

     total cpu time spent up to now is     1085.5 secs

     total energy              =  -29635.01047131 Ry
     estimated scf accuracy    <       0.00299293 Ry

     iteration # 16     ecut=    50.00 Ry     beta= 0.70
     Davidson diagonalization with overlap
     ethr =  2.26E-07,  avg # of iterations =  2.0

     negative rho (up, down):  1.599E-03 0.000E+00

     total cpu time spent up to now is     1142.2 secs

     total energy              =  -29635.01072786 Ry
     estimated scf accuracy    <       0.00007657 Ry

     iteration # 17     ecut=    50.00 Ry     beta= 0.70
     Davidson diagonalization with overlap
     ethr =  5.78E-09,  avg # of iterations =  3.0

     negative rho (up, down):  1.598E-03 0.000E+00

     total cpu time spent up to now is     1201.8 secs

     total energy              =  -29635.01073279 Ry
     estimated scf accuracy    <       0.00010060 Ry

     iteration # 18     ecut=    50.00 Ry     beta= 0.70
     Davidson diagonalization with overlap
     ethr =  5.78E-09,  avg # of iterations =  2.0

     negative rho (up, down):  1.598E-03 0.000E+00

     total cpu time spent up to now is     1258.4 secs

     total energy              =  -29635.01073930 Ry
     estimated scf accuracy    <       0.00006816 Ry

     iteration # 19     ecut=    50.00 Ry     beta= 0.70
     Davidson diagonalization with overlap
     ethr =  5.15E-09,  avg # of iterations =  2.0

     negative rho (up, down):  1.597E-03 0.000E+00

     total cpu time spent up to now is     1314.9 secs

     total energy              =  -29635.01074595 Ry
     estimated scf accuracy    <       0.00000876 Ry

     iteration # 20     ecut=    50.00 Ry     beta= 0.70
     Davidson diagonalization with overlap
     ethr =  6.61E-10,  avg # of iterations =  2.0

     negative rho (up, down):  1.597E-03 0.000E+00

     total cpu time spent up to now is     1371.6 secs

     total energy              =  -29635.01074679 Ry
     estimated scf accuracy    <       0.00000328 Ry

     iteration # 21     ecut=    50.00 Ry     beta= 0.70
     Davidson diagonalization with overlap
     ethr =  2.48E-10,  avg # of iterations =  3.0

     negative rho (up, down):  1.597E-03 0.000E+00

     total cpu time spent up to now is     1428.7 secs

     total energy              =  -29635.01074688 Ry
     estimated scf accuracy    <       0.00000198 Ry

     iteration # 22     ecut=    50.00 Ry     beta= 0.70
     Davidson diagonalization with overlap
     ethr =  1.49E-10,  avg # of iterations =  2.0

     negative rho (up, down):  1.597E-03 0.000E+00

     total cpu time spent up to now is     1485.7 secs

     total energy              =  -29635.01074699 Ry
     estimated scf accuracy    <       0.00000273 Ry

     iteration # 23     ecut=    50.00 Ry     beta= 0.70
     Davidson diagonalization with overlap
     ethr =  1.49E-10,  avg # of iterations =  2.0

     negative rho (up, down):  1.597E-03 0.000E+00

     total cpu time spent up to now is     1542.1 secs

     End of self-consistent calculation

          k = 0.0000 0.0000 0.0000 ( 47459 PWs)   bands (ev):

  -129.2736-129.2491-129.0738-129.0138-129.0094-129.0049-128.9927-128.9910
  -128.9878-128.9838-128.9812-128.9769-128.9686-128.9587-128.6350-128.6318
  -128.5942-128.5895-128.5839-128.5754-128.5709-128.5690-128.5671-128.5653
  -128.5645-128.5637-128.5609-128.5591-128.5571-128.5505-128.5448-128.5367
  -127.9691-127.9331-127.9004-127.8989-127.8925-127.8842-127.8802-127.8785
  -127.8755-127.8744-127.8735-127.8724-127.8707-127.8679-127.8660-127.8594
  -127.8544-127.8471-127.5087-127.4620-127.4566-127.4545-127.4438-127.4417
  -127.4394-127.4350-127.4332-127.4285-127.4211-127.4102-127.1707-127.1666
   -85.2818 -85.2629 -85.2169 -85.2128 -85.2055 -85.2036 -85.2010 -85.2000
   -85.1975 -85.1921 -85.1887 -85.1870 -85.1033 -85.1011 -85.1005 -85.0984
   -85.0969 -85.0960 -84.9617 -84.9503 -84.9444 -84.9404 -84.9344 -84.9307
   -84.9263 -84.9198 -84.9174 -84.9165 -84.9150 -84.9113 -84.7450 -84.7447
   -84.7416 -84.7411 -84.4092 -84.4055 -84.3976 -84.3974 -84.3955 -84.3909
   -84.3874 -84.3870 -84.3862 -84.3840 -84.3789 -84.3727 -83.9222 -83.9216
   -83.9188 -83.9184 -83.9154 -83.9141 -83.6594 -83.6531 -83.6519 -83.6487
   -83.6472 -83.6458 -83.6453 -83.6438 -83.6415 -83.6391 -83.6284 -83.6267
   -82.4238 -82.3293 -82.2661 -82.2638 -82.2580 -82.2510 -82.2492 -82.2453
   -82.2440 -82.2434 -82.2418 -82.2393 -82.2368 -82.2322 -82.2277 -82.2253
   -82.2091 -82.2068 -82.1968 -82.1882 -82.1801 -82.1701 -82.1669 -82.1576
   -82.1486 -82.1434 -82.0281 -82.0246 -81.9874 -81.9808 -81.9795 -81.9787
   -81.9762 -81.9758 -81.9735 -81.9730 -81.9691 -81.9620 -81.9593 -81.9562
   -81.9459 -81.9432 -81.9404 -81.9363 -81.9325 -81.9289 -81.9255 -81.9198
   -81.9156 -81.9055 -81.7022 -81.6343 -81.6026 -81.5983 -81.5914 -81.5847
   -81.5807 -81.5791 -81.5710 -81.5702 -81.5644 -81.5618 -81.5580 -81.5547
   -81.5521 -81.5477 -81.5424 -81.5346 -81.5161 -81.5157 -81.4985 -81.4972
   -81.4962 -81.4921 -81.4888 -81.4876 -81.4873 -81.4854 -81.4803 -81.4739
   -81.4029 -81.3638 -81.3626 -81.3540 -81.3459 -81.3376 -81.3359 -81.3281
   -81.3254 -81.3188 -81.3101 -81.3026 -81.2028 -81.1814 -81.1330 -81.1307
   -81.1264 -81.1261 -80.9657 -80.9464 -80.9433 -80.9397 -80.9351 -80.9330
   -80.9255 -80.9195 -80.9176 -80.9161 -80.9152 -80.9112 -80.7602 -80.7557
   -80.7527 -80.7487 -80.7466 -80.7464 -80.6743 -80.6703 -80.6593 -80.6570
   -80.6496 -80.6479 -80.6451 -80.6443 -80.6366 -80.6343 -80.6300 -80.6260
   -17.2955 -15.9282 -15.9207 -15.8907 -15.8890 -15.8829 -15.8821 -15.7924
   -15.7887 -15.7674 -15.7663 -15.7607 -15.7599 -15.2024 -15.2012 -15.2002
   -15.0747 -15.0734 -15.0720 -14.7095 -14.1243 -13.8179 -13.8127 -13.8083
   -13.7870 -13.7849 -13.7824 -13.7793 -13.7747 -13.7684 -13.7645 -13.7623
   -13.7590 -13.7565 -13.6480 -13.6405 -13.6377 -13.6366 -13.6325 -13.6305
   -13.4785 -13.2383 -13.1992 -13.1546 -13.1525 -13.1467 -13.1453 -12.9505
   -12.9390 -12.9384 -12.9371 -12.9322 -12.9313 -12.9044 -12.8995 -12.8983
   -12.8970 -12.8927 -12.8902 -12.6408 -12.5998 -12.5489 -12.5239 -12.5192
   -12.5086 -12.5057 -12.5018 -12.4986 -12.4822 -12.4756 -12.4714 -12.4694
   -12.4612 -12.4600 -12.4461 -12.4456 -12.4419 -12.4396 -12.4285 -12.4268
   -12.3697 -12.3260 -12.3143 -12.3109 -12.3072 -12.3000 -12.2427 -12.2032
   -12.2017 -12.1879 -12.1770 -12.1707 -12.1654 -12.1624 -12.1396 -12.1331
   -12.1264 -12.1238 -12.1204 -12.1083 -12.0988 -12.0746 -12.0661 -12.0646
   -12.0601 -11.8615 -11.8319 -11.8070 -11.7993 -11.7959 -11.7874 -11.7737
   -11.7332 -11.7216 -11.7152 -11.7108 -11.7079 -11.7034 -11.6403 -11.6394
   -11.6364 -11.6246 -11.6200 -11.6147 -11.6101 -11.6067 -11.5589 -11.5220
   -11.5174 -11.5130 -11.5068 -11.5004 -11.4968 -11.3139 -11.2935 -11.2782
   -11.2571 -11.2444 -11.2240 -11.2207 -11.2180 -11.2176 -11.2105 -11.2102
   -11.2051 -11.2027 -11.1933 -11.0335 -11.0302 -11.0295 -10.9601 -10.9493
   -10.9481 -10.9467 -10.9350 -10.9341 -10.6652 -10.6331 -10.6264 -10.6246
   -10.6208 -10.6167 -10.5836 -10.5828 -10.5632 -10.5627 -10.5318 -10.5315
   -10.4884 -10.4875 -10.3998 -10.3857 -10.3764 -10.3736 -10.3594 -10.3585
    -9.5923  -9.5737  -9.5703  -9.5665  -9.5569  -9.5550  -9.5431  -9.0172
    -8.8421  -8.8384  -8.8378  -8.5828  -8.5732  -8.5639  -8.5587  -8.5363
    -8.5035  -8.2907  -8.2833  -8.2822  -8.2793  -8.2766  -8.2757  -8.1605
    -8.1534  -8.1463  -8.1449  -8.1425  -8.1420  -8.1298  -8.1206  -8.1147
    -8.1055  -8.1026  -8.0780  -8.0662  -8.0628  -8.0589  -7.9592  -7.9526
    -7.9417  -7.8524  -7.8053  -7.7776  -7.7753  -7.7689  -7.7553  -7.7355
    -7.7219  -7.6938  -7.6825  -7.6782  -7.6731  -7.6697  -7.6676  -7.6611
    -7.6499  -7.6470  -7.6392  -7.5559  -7.4849  -7.4813  -7.4783  -7.4281
    -7.4217  -7.4183  -7.4174  -7.4112  -7.4101  -7.3571  -7.3520  -7.3463
    -7.3450  -7.3397  -7.3375  -7.3271  -7.2940  -7.2851  -7.2775  -7.2727
    -7.2679  -7.2444  -7.2210  -7.2191  -6.9616  -6.9113  -6.8823  -6.8690
    -6.8645  -6.8600  -6.7751  -6.7562  -6.7392  -6.5856  -6.5705  -6.5647
    -6.5219  -6.4964  -6.4888  -6.4859  -6.4766  -6.4615  -6.3368  -6.2501
    -6.2292  -6.2116  -6.2073  -6.2014  -6.1973  -6.1914  -6.0929  -6.0826
    -6.0807  -6.0757  -6.0706  -6.0659  -5.9906  -5.9597  -5.9542  -5.9508
    -5.9052  -5.8261  -5.8076  -5.7936  -5.7847  -5.7836  -5.7437  -5.7404
    -5.7368  -5.7323  -5.7169  -5.7000  -5.6883  -5.6800  -5.6724  -5.6613
    -5.6595  -5.6559  -5.6289  -5.6122  -5.6108  -5.6009  -5.5547  -5.5520
    -5.5305  -5.5280  -5.5222  -5.5195  -5.5060  -5.4788  -5.4770  -5.4766
    -5.4728  -5.4726  -5.4643  -5.4635  -5.4626  -5.4585  -5.4558  -5.4504
    -5.4484  -5.1703  -4.6478  -4.6188  -4.5947  -4.2569  -4.2561  -4.2405
    -4.2378  -4.2371  -4.2312  -4.0568  -4.0332  -4.0325  -4.0193  -4.0155
    -4.0103  -3.9502  -3.7928  -3.6617  -3.2322  -3.1467  -2.8691  -2.8485
    -2.8426  -2.7756  -2.7231  -2.6812  -2.4006  -1.8485  -1.6459  -1.6346
    -1.5239  -1.3896  -1.2493  -1.2419  -1.2399  -0.7736  -0.7507  -0.7455
    -0.7376  -0.6617  -0.5689  -0.3222  -0.2270  -0.0852   0.6281   1.1794
     1.2147   1.2959   1.6908   2.0501   2.0817   2.0837   2.0850   2.0885
     2.1690   2.2900   2.2989   2.3064   2.3125   2.3138   2.3430   2.6852
     3.5312   3.6055   3.6200   3.6386   3.7010   3.7893   4.2381   4.3194
     4.3714   4.7424   4.7798   4.8019   4.8262   4.8357   4.8435   4.8450
     4.8537   4.8552   4.8698   4.8945   5.2525   5.4480   5.5180   5.5583
     5.5968   5.6018   5.6801   5.7445   5.8213   6.4121   6.6353   6.6557
     6.6706   6.6781   6.6826   6.6965   6.7225   6.7929   6.8855   6.9458
     7.5293   7.5693   7.8846   8.0199   8.0277   8.0385   8.0481   8.1498
     8.1944   8.2028   8.3255   8.3920   8.5758   8.6416   8.6930   8.7148
     8.7931   8.8287   8.8901   8.9337   8.9573   9.0111   9.0429   9.0733
     9.1922   9.2271   9.2910   9.3667   9.3955   9.4682   9.5135   9.5723
     9.7180   9.7600   9.8468   9.8717   9.9110   9.9560   9.9913  10.0248
    10.0773  10.1120  10.1420  10.1849  10.1929  10.2266  10.2399  10.2615
    10.2762  10.2981  10.3024  10.3129  10.3368  10.3627  10.4437  10.4632
    10.5194  10.5298  10.5584  10.5783  10.6575  10.6833  10.7132  10.7397
    10.8132  10.8508  10.8579  10.9838  11.0382  11.1144  11.1437  11.1537
    11.1664  11.1719  11.1738  11.1841  11.2159  11.2852  11.3367  11.3656
    11.3722  11.4047  11.4508  11.5712  11.6401  11.7672  11.7933  11.8102
    11.8686  11.8832  11.9986  12.0478  12.1087  12.1927  12.2353  12.2468
    12.2746  12.2785

     the Fermi energy is     4.0134 ev

!    total energy              =  -29635.01074685 Ry
     estimated scf accuracy    <       0.00000052 Ry
     smearing contrib. (-TS)   =      -0.00081859 Ry
     internal energy E=F+TS    =  -29635.00992826 Ry

     The total energy is F=E-TS. E is the sum of the following terms:
     one-electron contribution = -341988.45029111 Ry
     hartree contribution      =  170807.51246417 Ry
     xc contribution           =   -2805.24019297 Ry
     ewald contribution        =  144394.34705576 Ry
     one-center paw contrib.   =     -43.17896411 Ry

     convergence has been achieved in  23 iterations

     negative rho (up, down):  1.597E-03 0.000E+00

     Forces acting on atoms (cartesian axes, Ry/au):

     atom    1 type  1   force =     0.00002375   -0.00105912   -0.06407348
     atom    2 type  1   force =    -0.00206957   -0.00090694   -0.06787291
     atom    3 type  1   force =    -0.00093800    0.00018634   -0.06161123
     atom    4 type  1   force =    -0.00047879   -0.00311170   -0.07078943
     atom    5 type  1   force =     0.00020521    0.00440963   -0.06241638
     atom    6 type  1   force =     0.00307232   -0.00255811   -0.05865339
     atom    7 type  1   force =    -0.00146387    0.00339052   -0.06713339
     atom    8 type  1   force =     0.00141802   -0.00257741   -0.06306567
     atom    9 type  1   force =    -0.00207244    0.00332157   -0.05885378
     atom   10 type  1   force =    -0.00109893    0.00062409   -0.07893245
     atom   11 type  1   force =     0.00217341   -0.00184744   -0.05950327
     atom   12 type  1   force =    -0.00012537   -0.00191283   -0.06688532
     atom   13 type  1   force =     0.00366643    0.00072533   -0.06632968
     atom   14 type  1   force =    -0.00116282   -0.00109343   -0.05895598
     atom   15 type  1   force =    -0.00178066   -0.00029722   -0.06108817
     atom   16 type  1   force =     0.00250259    0.00056288   -0.06395229
     atom   17 type  1   force =    -0.00435900   -0.00170736    0.06539296
     atom   18 type  1   force =    -0.00045608    0.00052787    0.06177745
     atom   19 type  1   force =     0.00271690   -0.00112749    0.06771792
     atom   20 type  1   force =     0.00152454   -0.00049912    0.05878209
     atom   21 type  1   force =    -0.00190167   -0.01223988    0.05165893
     atom   22 type  1   force =    -0.01320620    0.00308497    0.05385877
     atom   23 type  1   force =    -0.00429152    0.00215883    0.06666341
     atom   24 type  1   force =     0.00084182   -0.00265828    0.06727664
     atom   25 type  1   force =     0.00336050   -0.00887353    0.05297989
     atom   26 type  1   force =     0.01720730    0.03596354   -0.09550104
     atom   27 type  1   force =     0.00125756    0.00147436    0.06223155
     atom   28 type  1   force =     0.00109299   -0.00050321    0.06179517
     atom   29 type  1   force =     0.00668074   -0.00103480    0.06494704
     atom   30 type  1   force =     0.00369647    0.00129441    0.06206662
     atom   31 type  1   force =    -0.00139339   -0.00148228    0.06230847
     atom   32 type  1   force =    -0.00017486    0.00382532    0.06666192
     atom   33 type  1   force =     0.00133333   -0.00158331   -0.06512330
     atom   34 type  1   force =    -0.00187718    0.00289991   -0.06633554
     atom   35 type  1   force =    -0.00229937   -0.00413862   -0.06321299
     atom   36 type  1   force =    -0.00702826   -0.00077363   -0.06403527
     atom   37 type  1   force =    -0.00164875    0.00703553   -0.06016580
     atom   38 type  1   force =     0.00236682   -0.00021883   -0.07099766
     atom   39 type  1   force =     0.00390202   -0.00174799   -0.06143840
     atom   40 type  1   force =     0.00547220    0.00037796   -0.06347251
     atom   41 type  1   force =     0.00162902   -0.00485284   -0.06733862
     atom   42 type  1   force =    -0.00249156    0.00253561   -0.06368860
     atom   43 type  1   force =     0.00172135   -0.00330665   -0.06311518
     atom   44 type  1   force =    -0.00418547    0.00238213   -0.06582001
     atom   45 type  1   force =    -0.00086751    0.00062546   -0.05721594
     atom   46 type  1   force =     0.00371284    0.00127039   -0.06905512
     atom   47 type  1   force =    -0.00265577    0.00012513   -0.06183249
     atom   48 type  1   force =     0.00274238    0.00058267   -0.06983989
     atom   49 type  1   force =     0.00086257    0.00199811    0.06298439
     atom   50 type  1   force =    -0.00116409   -0.00053134    0.06240272
     atom   51 type  1   force =    -0.00302964    0.00011262    0.06718612
     atom   52 type  1   force =    -0.00065120   -0.00132265    0.06496881
     atom   53 type  1   force =    -0.00120886    0.00231136    0.06112224
     atom   54 type  1   force =    -0.04052043   -0.03427499   -0.01867695
     atom   55 type  1   force =     0.00397440   -0.00300801    0.06685847
     atom   56 type  1   force =    -0.00072164    0.00036298    0.06468894
     atom   57 type  1   force =     0.00157243   -0.00191239    0.06459429
     atom   58 type  1   force =     0.05602405   -0.01335253   -0.03751478
     atom   59 type  1   force =     0.00685458    0.02683801    0.03815389
     atom   60 type  1   force =     0.00086953    0.00227246    0.06470686
     atom   61 type  1   force =    -0.00070369   -0.00082498    0.06864223
     atom   62 type  1   force =     0.00222418   -0.00059840    0.06078907
     atom   63 type  1   force =    -0.00143402   -0.00070805    0.06565912
     atom   64 type  1   force =    -0.00298251   -0.00040574    0.06075711
     atom   65 type  2   force =    -0.00010326   -0.00021551    0.00241181
     atom   66 type  2   force =    -0.00000582    0.00059559   -0.00269610
     atom   67 type  2   force =    -0.00046253   -0.00098561    0.00192251
     atom   68 type  2   force =    -0.00006770   -0.00085061    0.00160866
     atom   69 type  2   force =    -0.00035020    0.00064629   -0.00216519
     atom   70 type  2   force =     0.00052177   -0.00102449   -0.00424767
     atom   71 type  2   force =    -0.00265315   -0.00152919    0.03420824
     atom   72 type  3   force =     0.00008975    0.00022556   -0.00227053
     atom   73 type  3   force =    -0.03285699    0.00091231    0.21858866
     atom   74 type  4   force =    -0.03127976    0.02802832    0.08764431
     atom   75 type  4   force =     0.03235620   -0.02108276    0.08017276
     atom   76 type  4   force =     0.00022599    0.00009942    0.00021479
     atom   77 type  4   force =    -0.00010623    0.00010634    0.00023079
     atom   78 type  4   force =     0.00045396    0.00019887   -0.00017777
     atom   79 type  4   force =    -0.00002114    0.00064658   -0.00058140

     Total force =     0.578179     Total SCF correction =     0.011261

     BFGS Geometry Optimization
     Energy error            =      0.0E+00 Ry
     Gradient error          =      2.2E-01 Ry/Bohr

     number of scf cycles    =   1
     number of bfgs steps    =   0

     energy             new  =  -29635.0107468514 Ry

     new trust radius        =       0.2210461807 bohr
     new conv_thr            =       0.0000010000 Ry


ATOMIC_POSITIONS (angstrom)
Zn              -0.0000034333        1.5088435372        1.1843807744
Zn              -1.3082801692        3.7730270659        1.1823702027
Zn              -2.6148613659        6.0377076049        1.1856837395
Zn              -3.9218093627        8.3000643616        1.1808268456
Zn               2.6144525946        1.5117374741        1.1852576753
Zn               1.3088008003        3.7721533042        1.1872489618
Zn              -0.0007796490        6.0394031877        1.1827615410
Zn              -1.3064456180        8.3003470934        1.1849140842
Zn               5.2276073113        1.5111617016        1.1871429204
Zn               3.9209534736        3.7738372549        1.1765177484
Zn               2.6155051207        6.0366313781        1.1867992232
Zn               1.3070976560        8.3006987723        1.1828928117
Zn               7.8450041905        1.5097878261        1.1831868450
Zn               6.5352796616        3.7729283834        1.1870888412
Zn               5.2277727166        6.0374517181        1.1859605346
Zn               3.9228483131        8.3020088645        1.1844449034
Zn              -0.0023226810        1.5085005043        3.6894664640
Zn              -1.3074263474        3.7737863349        3.6875532195
Zn              -2.6129272808        6.0370123589        3.6906967794
Zn              -3.9207492463        8.3014468783        3.6859681414
Zn               2.6133376799        1.5029269325        3.6821987262
Zn               1.3001865792        3.7751394955        3.6833628350
Zn              -0.0022759733        6.0387514035        3.6901387577
Zn              -1.3067505260        8.3003042995        3.6904632631
Zn               5.2304822979        1.5047083312        3.6828977502
Zn               3.9306407103        3.7925380856        3.6043250285
Zn               2.6150204695        6.0383891971        3.6877935175
Zn               1.3077423872        8.3014447105        3.6875625944
Zn               7.8465992967        1.5088564053        3.6892304908
Zn               6.5378510856        3.7741919739        3.6877062391
Zn               5.2279776516        6.0368246107        3.6878342216
Zn               3.9214314698        8.3037352723        3.6901379691
Zn               1.3079015684        0.7538601472        1.1838252334
Zn              -0.0009883599        3.0203345673        1.1831837430
Zn              -1.3083917750        5.2807119391        1.1848361241
Zn              -2.6180691929        7.5465856105        1.1844009922
Zn               3.9206835205        0.7584210398        1.1864486310
Zn               2.6156174681        3.0186841988        1.1807166563
Zn               1.3092498624        5.2819770037        1.1857751979
Zn               0.0029057615        7.5471950081        1.1846987916
Zn               6.5367780403        0.7521299870        1.1826529346
Zn               5.2274065230        3.0201417894        1.1845844448
Zn               3.9224558994        5.2811521966        1.1848878846
Zn               2.6121551458        7.5482555691        1.1834565504
Zn               9.1498169340        0.7550289806        1.1880096265
Zn               7.8450497482        3.0194722603        1.1817446062
Zn               6.5344996249        5.2829682135        1.1855666568
Zn               5.2301812042        7.5473033354        1.1813293200
Zn               1.3076524523        0.7557553548        3.6881919044
Zn              -0.0006110099        3.0185188272        3.6878840969
Zn              -1.3087782157        5.2829615978        3.6904153632
Zn              -2.6146946022        7.5462950857        3.6892420114
Zn               3.9209162995        0.7559211214        3.6872064950
Zn               2.5929225109        3.0006624583        3.6449785841
Zn               1.3092881595        5.2813102281        3.6902419805
Zn              -0.0003718781        7.5471870819        3.6890939112
Zn               6.5367480924        0.7536860077        3.6890438253
Zn               5.2583716501        3.0117341443        3.6350100351
Zn               3.9251722859        5.2971040620        3.6750521712
Zn               2.6148301349        7.5481975348        3.6891033940
Zn               9.1499036215        0.7542614390        3.6911859015
Zn               7.8442619839        3.0184833414        3.6870301894
Zn               6.5351461518        5.2825273151        3.6896073088
Zn               5.2271517228        7.5467802906        3.6870132802
C                3.3321983582        2.3194859567       11.2731212771
C                3.4452219221        2.5817541713        9.8752582871
C                2.3933642380        3.2008554357        9.1742143462
C                4.6110151737        2.2257598784        9.1705912640
C                2.5022956806        3.4570549993        7.8146482303
C                4.7222551083        2.4799808644        7.8100642306
C                3.6682210131        3.1009477869        7.1231202234
N                3.2397104922        2.1049013602       12.4146594880
N                3.7607188318        3.3536727758        5.8794551349
H                3.0129154626        3.8129809489        5.3009843714
H                4.6277181638        3.0915964825        5.2944435990
H                5.4329635899        1.7461006126        9.7000246613
H                1.4856797846        3.4821092727        9.7063011297
H                5.6332552252        2.1982042383        7.2814239267
H                1.6771688106        3.9381681577        7.2874783345



     Writing config-only to output data dir /home/ys/Research/PSID_server_room/qe/zinc_surface_ABN.relax/Zn_002_ABN/pwscf.save/ :
     XML data file
     NEW-OLD atomic charge density approx. for the potential

     negative rho (up, down):  2.547E-03 0.000E+00

     total cpu time spent up to now is     1569.4 secs

     Self-consistent Calculation

     iteration #  1     ecut=    50.00 Ry     beta= 0.70
     Davidson diagonalization with overlap
     ethr =  1.00E-06,  avg # of iterations =  9.0

     negative rho (up, down):  1.610E-03 0.000E+00

     total cpu time spent up to now is     1736.9 secs

     total energy              =  -29635.24962935 Ry
     estimated scf accuracy    <       0.03933472 Ry

     iteration #  2     ecut=    50.00 Ry     beta= 0.70
     Davidson diagonalization with overlap
     ethr =  2.97E-06,  avg # of iterations = 13.0

     negative rho (up, down):  1.658E-03 0.000E+00

     total cpu time spent up to now is     1818.6 secs

     total energy              =  -29635.18837832 Ry
     estimated scf accuracy    <       0.76123309 Ry

     iteration #  3     ecut=    50.00 Ry     beta= 0.70
     Davidson diagonalization with overlap
     ethr =  2.97E-06,  avg # of iterations = 14.0

     negative rho (up, down):  1.705E-03 0.000E+00

     total cpu time spent up to now is     1892.9 secs

     total energy              =  -29635.22868614 Ry
     estimated scf accuracy    <       0.55675725 Ry

     iteration #  4     ecut=    50.00 Ry     beta= 0.70
     Davidson diagonalization with overlap
     ethr =  2.97E-06,  avg # of iterations = 18.0

     negative rho (up, down):  1.702E-03 0.000E+00

     total cpu time spent up to now is     1965.3 secs

     total energy              =  -29635.24732941 Ry
     estimated scf accuracy    <       0.14535815 Ry

     iteration #  5     ecut=    50.00 Ry     beta= 0.70
     Davidson diagonalization with overlap
     ethr =  2.97E-06,  avg # of iterations =  3.0

     negative rho (up, down):  1.694E-03 0.000E+00

     total cpu time spent up to now is     2025.5 secs

     total energy              =  -29635.26063339 Ry
     estimated scf accuracy    <       0.00808514 Ry

     iteration #  6     ecut=    50.00 Ry     beta= 0.70
     Davidson diagonalization with overlap
     ethr =  6.11E-07,  avg # of iterations =  3.0

     negative rho (up, down):  1.694E-03 0.000E+00

     total cpu time spent up to now is     2083.8 secs

     total energy              =  -29635.26172217 Ry
     estimated scf accuracy    <       0.00090952 Ry

     iteration #  7     ecut=    50.00 Ry     beta= 0.70
     Davidson diagonalization with overlap
     ethr =  6.87E-08,  avg # of iterations =  2.0

     negative rho (up, down):  1.694E-03 0.000E+00

     total cpu time spent up to now is     2141.6 secs

     total energy              =  -29635.26182989 Ry
     estimated scf accuracy    <       0.00074565 Ry

     iteration #  8     ecut=    50.00 Ry     beta= 0.70
     Davidson diagonalization with overlap
     ethr =  5.63E-08,  avg # of iterations =  2.0

     negative rho (up, down):  1.694E-03 0.000E+00

     total cpu time spent up to now is     2198.1 secs

     total energy              =  -29635.26190940 Ry
     estimated scf accuracy    <       0.00025202 Ry

     iteration #  9     ecut=    50.00 Ry     beta= 0.70
     Davidson diagonalization with overlap
     ethr =  1.90E-08,  avg # of iterations =  2.0

     negative rho (up, down):  1.694E-03 0.000E+00

     total cpu time spent up to now is     2254.6 secs

     total energy              =  -29635.26194031 Ry
     estimated scf accuracy    <       0.00004957 Ry

     iteration # 10     ecut=    50.00 Ry     beta= 0.70
     Davidson diagonalization with overlap
     ethr =  3.74E-09,  avg # of iterations =  2.0

     negative rho (up, down):  1.694E-03 0.000E+00

     total cpu time spent up to now is     2311.8 secs

     total energy              =  -29635.26194610 Ry
     estimated scf accuracy    <       0.00000313 Ry

     iteration # 11     ecut=    50.00 Ry     beta= 0.70
     Davidson diagonalization with overlap
     ethr =  2.37E-10,  avg # of iterations =  2.0

     negative rho (up, down):  1.694E-03 0.000E+00

     total cpu time spent up to now is     2373.1 secs

     total energy              =  -29635.26194592 Ry
     estimated scf accuracy    <       0.00001022 Ry

     iteration # 12     ecut=    50.00 Ry     beta= 0.70
     Davidson diagonalization with overlap
     ethr =  2.37E-10,  avg # of iterations =  2.0

     negative rho (up, down):  1.694E-03 0.000E+00

     total cpu time spent up to now is     2429.9 secs

     total energy              =  -29635.26194693 Ry
     estimated scf accuracy    <       0.00000109 Ry

     iteration # 13     ecut=    50.00 Ry     beta= 0.70
     Davidson diagonalization with overlap
     ethr =  8.25E-11,  avg # of iterations =  2.0

     negative rho (up, down):  1.694E-03 0.000E+00

     total cpu time spent up to now is     2487.0 secs

     total energy              =  -29635.26194684 Ry
     estimated scf accuracy    <       0.00000503 Ry

     iteration # 14     ecut=    50.00 Ry     beta= 0.70
     Davidson diagonalization with overlap
     ethr =  8.25E-11,  avg # of iterations =  2.0

     negative rho (up, down):  1.694E-03 0.000E+00

     total cpu time spent up to now is     2543.2 secs

     End of self-consistent calculation

          k = 0.0000 0.0000 0.0000 ( 47459 PWs)   bands (ev):

  -129.2764-129.2726-129.0550-129.0400-129.0330-129.0251-129.0222-129.0183
  -129.0157-129.0119-129.0100-129.0083-128.9973-128.9805-128.6517-128.6209
  -128.6127-128.6125-128.6109-128.6043-128.6033-128.6006-128.5975-128.5925
  -128.5920-128.5890-128.5874-128.5839-128.5834-128.5792-128.5785-128.5063
  -127.9290-127.9191-127.9185-127.9165-127.9146-127.9138-127.9072-127.9043
  -127.9030-127.9020-127.9012-127.9000-127.8989-127.8963-127.8951-127.8908
  -127.8861-127.8705-127.4917-127.4780-127.4775-127.4701-127.4694-127.4675
  -127.4668-127.4636-127.4630-127.4617-127.4578-127.4431-127.1987-127.1896
   -85.2935 -85.2581 -85.2522 -85.2450 -85.2431 -85.2377 -85.2319 -85.2285
   -85.2236 -85.2212 -85.2197 -85.2087 -85.1606 -85.1421 -85.1266 -85.1238
   -85.1134 -85.1006 -84.9937 -84.9812 -84.9675 -84.9644 -84.9631 -84.9598
   -84.9559 -84.9526 -84.9503 -84.9452 -84.9283 -84.8656 -84.7733 -84.7720
   -84.7692 -84.7251 -84.4649 -84.4380 -84.4334 -84.4315 -84.4223 -84.4168
   -84.4141 -84.4119 -84.4058 -84.3975 -84.3782 -84.3078 -83.9561 -83.9484
   -83.9431 -83.9388 -83.9154 -83.9090 -83.6901 -83.6780 -83.6758 -83.6744
   -83.6742 -83.6736 -83.6689 -83.6677 -83.6658 -83.6635 -83.6277 -83.5870
   -82.3662 -82.3385 -82.2784 -82.2739 -82.2723 -82.2714 -82.2703 -82.2698
   -82.2657 -82.2623 -82.2608 -82.2585 -82.2507 -82.2480 -82.2364 -82.2298
   -82.2278 -82.2203 -82.2138 -82.2114 -82.1996 -82.1937 -82.1909 -82.1872
   -82.1817 -82.1777 -82.0226 -82.0087 -82.0057 -82.0040 -82.0004 -81.9972
   -81.9947 -81.9921 -81.9895 -81.9880 -81.9858 -81.9831 -81.9828 -81.9790
   -81.9759 -81.9660 -81.9626 -81.9609 -81.9576 -81.9551 -81.9531 -81.9506
   -81.9479 -81.9323 -81.6315 -81.6180 -81.6141 -81.6110 -81.6103 -81.6102
   -81.6086 -81.6051 -81.6031 -81.5902 -81.5884 -81.5864 -81.5854 -81.5849
   -81.5834 -81.5795 -81.5750 -81.5727 -81.5252 -81.5248 -81.5218 -81.5210
   -81.5199 -81.5178 -81.5164 -81.5135 -81.5086 -81.5062 -81.4990 -81.4894
   -81.3890 -81.3876 -81.3790 -81.3744 -81.3697 -81.3655 -81.3610 -81.3572
   -81.3526 -81.3505 -81.3466 -81.3350 -81.2265 -81.2103 -81.1545 -81.1539
   -81.1529 -81.1371 -80.9847 -80.9721 -80.9692 -80.9579 -80.9527 -80.9499
   -80.9483 -80.9476 -80.9441 -80.9360 -80.9343 -80.9302 -80.7817 -80.7781
   -80.7772 -80.7725 -80.7653 -80.7550 -80.6900 -80.6856 -80.6834 -80.6813
   -80.6787 -80.6710 -80.6704 -80.6693 -80.6667 -80.6600 -80.6571 -80.6531
   -17.2139 -15.9119 -15.9106 -15.9060 -15.8992 -15.8930 -15.8893 -15.8110
   -15.8104 -15.8045 -15.7988 -15.7908 -15.7824 -15.2262 -15.2050 -15.1989
   -15.1096 -15.0979 -15.0802 -14.4875 -13.8661 -13.8578 -13.8492 -13.8330
   -13.8172 -13.8108 -13.8063 -13.7981 -13.7693 -13.7676 -13.7636 -13.7453
   -13.7359 -13.7345 -13.6777 -13.6677 -13.6640 -13.6582 -13.6307 -13.6167
   -13.5032 -13.1459 -13.1251 -13.1150 -13.1124 -13.1120 -13.1050 -13.0145
   -12.9629 -12.9598 -12.9552 -12.9534 -12.9483 -12.9270 -12.9219 -12.9193
   -12.9134 -12.8978 -12.8861 -12.5952 -12.5864 -12.5767 -12.5753 -12.5700
   -12.5639 -12.5219 -12.5216 -12.5113 -12.5092 -12.5010 -12.4815 -12.4799
   -12.4787 -12.4765 -12.4736 -12.4703 -12.4474 -12.4421 -12.4201 -12.4118
   -12.3335 -12.3241 -12.3154 -12.3147 -12.3107 -12.3086 -12.2208 -12.2159
   -12.2069 -12.2043 -12.2030 -12.1891 -12.1544 -12.1310 -12.1268 -12.1198
   -12.1174 -12.1113 -12.0983 -12.0957 -12.0774 -12.0657 -12.0403 -12.0360
   -11.8930 -11.7974 -11.7864 -11.7815 -11.7664 -11.7608 -11.7487 -11.7457
   -11.7401 -11.7386 -11.7369 -11.7332 -11.7094 -11.6367 -11.6350 -11.6283
   -11.6262 -11.6253 -11.6180 -11.6161 -11.6112 -11.5771 -11.5475 -11.5432
   -11.5397 -11.5350 -11.5232 -11.4828 -11.3904 -11.3471 -11.3355 -11.3124
   -11.3059 -11.2891 -11.2746 -11.2686 -11.2567 -11.2529 -11.2471 -11.2214
   -11.2135 -11.2073 -11.1958 -11.0667 -11.0606 -11.0392 -10.9158 -10.9089
   -10.9017 -10.9007 -10.8971 -10.8795 -10.5921 -10.5911 -10.5817 -10.5805
   -10.5545 -10.5524 -10.5144 -10.5132 -10.4768 -10.4545 -10.4325 -10.4236
   -10.4230 -10.4223 -10.4186 -10.4072 -10.4033 -10.4016 -10.3946 -10.3874
    -9.5315  -9.4668  -9.4617  -9.4588  -9.4383  -9.4378  -9.4174  -8.8215
    -8.7383  -8.7297  -8.7239  -8.6204  -8.6163  -8.6079  -8.6072  -8.5635
    -8.4854  -8.3049  -8.2883  -8.2855  -8.2801  -8.2767  -8.2693  -8.1862
    -8.1822  -8.1754  -8.1731  -8.1718  -8.1384  -8.1070  -8.0950  -8.0821
    -8.0751  -8.0721  -8.0569  -8.0341  -8.0255  -8.0178  -7.9861  -7.9799
    -7.9689  -7.8536  -7.8299  -7.8045  -7.7945  -7.7924  -7.7908  -7.7374
    -7.7228  -7.6974  -7.6902  -7.6874  -7.6860  -7.6626  -7.6395  -7.6219
    -7.6162  -7.6120  -7.6098  -7.5362  -7.5280  -7.5270  -7.5107  -7.4667
    -7.4405  -7.4380  -7.4328  -7.4263  -7.4201  -7.3838  -7.3769  -7.3750
    -7.3710  -7.3559  -7.3464  -7.3369  -7.3357  -7.3332  -7.3236  -7.2984
    -7.2981  -7.2018  -7.1749  -7.1710  -6.9529  -6.9451  -6.9384  -6.9311
    -6.9293  -6.9255  -6.7578  -6.7490  -6.6067  -6.6022  -6.5699  -6.5320
    -6.4912  -6.4422  -6.4354  -6.4334  -6.4304  -6.3975  -6.2435  -6.2127
    -6.2104  -6.2072  -6.2023  -6.2006  -6.1938  -6.1561  -6.1345  -6.1238
    -6.1229  -6.1218  -6.1188  -6.1065  -6.1050  -6.1016  -6.1009  -6.0924
    -5.9670  -5.8477  -5.7746  -5.7659  -5.7600  -5.7569  -5.7529  -5.7483
    -5.7462  -5.7445  -5.7422  -5.7363  -5.7265  -5.7176  -5.7107  -5.6993
    -5.6915  -5.6856  -5.6815  -5.6770  -5.6751  -5.6738  -5.5670  -5.5522
    -5.5446  -5.5431  -5.5415  -5.5378  -5.5095  -5.5057  -5.5016  -5.4941
    -5.4933  -5.4889  -5.4868  -5.4838  -5.4819  -5.4800  -5.4742  -5.4524
    -5.4448  -5.2574  -4.5343  -4.5159  -4.5027  -4.2579  -4.2526  -4.2487
    -4.2462  -4.2429  -4.2391  -4.0610  -4.0592  -4.0544  -4.0516  -4.0474
    -4.0427  -3.8507  -3.6916  -3.5063  -3.2403  -3.0667  -3.0178  -3.0017
    -2.9993  -2.8663  -2.7946  -2.7806  -2.2560  -1.8417  -1.7851  -1.7628
    -1.5445  -1.2975  -1.2101  -1.1956  -1.1922  -0.8098  -0.8072  -0.8012
    -0.7902  -0.6437  -0.4377  -0.3476  -0.0401   0.0485   0.8312   1.0831
     1.1238   1.1755   1.9959   2.1404   2.1541   2.1565   2.1701   2.1742
     2.2809   2.3330   2.4010   2.4124   2.4236   2.4273   2.4328   2.4724
     3.4774   3.5467   3.5576   3.5732   3.6274   3.6793   4.1749   4.2482
     4.2645   4.4865   4.4900   4.4986   4.5250   4.5596   4.6676   4.7243
     4.7390   4.7453   4.7606   4.7674   5.0777   5.3916   5.4101   5.4468
     5.4540   5.4576   5.5059   5.9490   6.0135   6.3924   6.5813   6.6555
     6.7405   6.7508   6.7675   6.7814   6.7885   6.8087   6.8513   6.9067
     7.6181   7.7503   7.9125   8.0672   8.1452   8.1723   8.1748   8.1862
     8.1918   8.2018   8.2902   8.3529   8.5434   8.5776   8.6167   8.6526
     8.6779   8.7225   8.7489   8.7748   8.7964   8.8279   8.8882   8.9397
     9.1310   9.2071   9.2832   9.3538   9.4413   9.5048   9.5368   9.6041
     9.6341   9.6887   9.8192   9.8467   9.8519   9.8937   9.9214   9.9707
    10.0109  10.0340  10.0701  10.1076  10.1410  10.1681  10.1870  10.2037
    10.2187  10.2286  10.2311  10.2508  10.2667  10.3057  10.3073  10.3605
    10.3834  10.4331  10.4514  10.4991  10.5742  10.5808  10.6608  10.6978
    10.7129  10.7322  10.7533  10.8752  11.0859  11.1060  11.1898  11.2406
    11.2604  11.2739  11.2929  11.2997  11.3006  11.3078  11.3117  11.3178
    11.3212  11.3494  11.4554  11.5701  11.6578  11.7583  11.7847  11.8026
    11.8417  11.8691  11.9670  12.0553  12.0857  12.1400  12.2066  12.2441
    12.2564  12.2673

     the Fermi energy is     3.9284 ev

!    total energy              =  -29635.26194660 Ry
     estimated scf accuracy    <       0.00000058 Ry
     smearing contrib. (-TS)   =      -0.00049830 Ry
     internal energy E=F+TS    =  -29635.26144830 Ry

     The total energy is F=E-TS. E is the sum of the following terms:
     one-electron contribution = -339057.47954812 Ry
     hartree contribution      =  169341.36334332 Ry
     xc contribution           =   -2804.69149489 Ry
     ewald contribution        =  142928.72866545 Ry
     one-center paw contrib.   =     -43.18241405 Ry

     convergence has been achieved in  14 iterations

     negative rho (up, down):  1.694E-03 0.000E+00

     Forces acting on atoms (cartesian axes, Ry/au):

     atom    1 type  1   force =     0.00723150    0.01112477   -0.04451495
     atom    2 type  1   force =     0.01175794    0.00099592   -0.04943903
     atom    3 type  1   force =     0.00299529   -0.00603844   -0.03753918
     atom    4 type  1   force =    -0.00711082    0.02577375   -0.05773239
     atom    5 type  1   force =    -0.01847773   -0.01080522   -0.03808945
     atom    6 type  1   force =    -0.00744862   -0.00256410   -0.02527458
     atom    7 type  1   force =     0.00227748   -0.02727208   -0.05311956
     atom    8 type  1   force =    -0.01096447    0.01448185   -0.04277647
     atom    9 type  1   force =     0.03209836   -0.01108123   -0.03134245
     atom   10 type  1   force =    -0.00415239   -0.00672152   -0.09578774
     atom   11 type  1   force =     0.01022294    0.01905921   -0.03183105
     atom   12 type  1   force =    -0.00190415    0.00967742   -0.04774616
     atom   13 type  1   force =    -0.02629992    0.00471888   -0.04814752
     atom   14 type  1   force =     0.01381976   -0.00493164   -0.02932934
     atom   15 type  1   force =    -0.00210715    0.01170490   -0.03423982
     atom   16 type  1   force =    -0.00972277   -0.01195582   -0.04194962
     atom   17 type  1   force =     0.01507314    0.00286102    0.04535254
     atom   18 type  1   force =     0.00719201    0.00598516    0.03770286
     atom   19 type  1   force =    -0.02376301    0.00303048    0.04996362
     atom   20 type  1   force =    -0.01370238    0.00453814    0.03037117
     atom   21 type  1   force =     0.03565463   -0.07245360    0.06852103
     atom   22 type  1   force =     0.00831316    0.03399884    0.06803968
     atom   23 type  1   force =     0.02607682   -0.02226499    0.04595734
     atom   24 type  1   force =    -0.00940673    0.01894191    0.05188332
     atom   25 type  1   force =    -0.04143868   -0.01126062    0.08079598
     atom   26 type  1   force =    -0.06397883   -0.24057423   -0.21992640
     atom   27 type  1   force =    -0.03572065    0.00855383    0.05339238
     atom   28 type  1   force =    -0.00951164   -0.00741442    0.03551814
     atom   29 type  1   force =    -0.02996819    0.00468908    0.04410226
     atom   30 type  1   force =     0.11947649    0.09117830    0.11029257
     atom   31 type  1   force =     0.07907690    0.03483765    0.05751222
     atom   32 type  1   force =     0.00041846   -0.01159578    0.04895056
     atom   33 type  1   force =     0.00694418   -0.00371946   -0.04311887
     atom   34 type  1   force =     0.00757043   -0.00731525   -0.05009025
     atom   35 type  1   force =     0.01039461    0.01538766   -0.03751058
     atom   36 type  1   force =     0.03401168    0.00438546   -0.04067413
     atom   37 type  1   force =    -0.00093453   -0.04030424   -0.03789324
     atom   38 type  1   force =     0.00414061    0.00948430   -0.06605062
     atom   39 type  1   force =    -0.02625846    0.00593276   -0.03908924
     atom   40 type  1   force =    -0.01785535    0.00644109   -0.03791640
     atom   41 type  1   force =    -0.00829058    0.02547223   -0.05181688
     atom   42 type  1   force =    -0.00061961    0.00134486   -0.04902525
     atom   43 type  1   force =    -0.00346218    0.00585803   -0.04012513
     atom   44 type  1   force =     0.02650820   -0.01394625   -0.04857782
     atom   45 type  1   force =     0.00877184   -0.00777733   -0.02237231
     atom   46 type  1   force =    -0.02600658   -0.00532355   -0.05654731
     atom   47 type  1   force =     0.00628588   -0.00183780   -0.04338806
     atom   48 type  1   force =    -0.01194116   -0.01089800   -0.05690132
     atom   49 type  1   force =    -0.04397446   -0.01311277    0.04989354
     atom   50 type  1   force =    -0.02528229   -0.02775934    0.04598710
     atom   51 type  1   force =     0.01587271   -0.01077802    0.04866127
     atom   52 type  1   force =     0.00480553   -0.00144487    0.04411478
     atom   53 type  1   force =     0.01549395   -0.02056493    0.04820873
     atom   54 type  1   force =     0.22467529    0.17027626   -0.06882644
     atom   55 type  1   force =    -0.01794633    0.03672380    0.05700175
     atom   56 type  1   force =     0.01407996    0.00548829    0.04151725
     atom   57 type  1   force =     0.03665954    0.00643331    0.05198559
     atom   58 type  1   force =    -0.24207289    0.00205771   -0.11801806
     atom   59 type  1   force =    -0.04878846    0.00638557    0.07995686
     atom   60 type  1   force =     0.00636552   -0.00414364    0.04571807
     atom   61 type  1   force =     0.00818907   -0.00503641    0.05472200
     atom   62 type  1   force =    -0.00488840   -0.00946724    0.03606062
     atom   63 type  1   force =     0.00903027    0.01541592    0.04780203
     atom   64 type  1   force =     0.00744757    0.00196728    0.03608916
     atom   65 type  2   force =     0.00123919    0.00277904   -0.01300744
     atom   66 type  2   force =     0.00031568   -0.00177356    0.00818109
     atom   67 type  2   force =    -0.00423764    0.00228842   -0.00523053
     atom   68 type  2   force =     0.00293826   -0.00081826   -0.00559439
     atom   69 type  2   force =    -0.01849158   -0.00106589    0.04050282
     atom   70 type  2   force =     0.00987666   -0.01356749    0.03277380
     atom   71 type  2   force =    -0.01701914   -0.02409816    0.16080410
     atom   72 type  3   force =    -0.00088352   -0.00201648    0.01049800
     atom   73 type  3   force =     0.02286091    0.04254958   -0.10801593
     atom   74 type  4   force =     0.01135740   -0.00272037    0.10092581
     atom   75 type  4   force =    -0.03443005    0.00223424    0.09878195
     atom   76 type  4   force =     0.00042102   -0.00027393    0.00192606
     atom   77 type  4   force =    -0.00052811   -0.00009207    0.00215455
     atom   78 type  4   force =     0.00044017    0.00100911   -0.00220204
     atom   79 type  4   force =     0.00120843    0.00072301   -0.00184467

     Total force =     0.747075     Total SCF correction =     0.012809
     Energy error            =      2.5E-01 Ry
     Gradient error          =      2.4E-01 Ry/Bohr

     number of scf cycles    =   2
     number of bfgs steps    =   1

     energy             old  =  -29635.0107468514 Ry
     energy             new  =  -29635.2619465986 Ry

     CASE: energy            _new < energy            _old

     new trust radius        =       0.2431507988 bohr
     new conv_thr            =       0.0000010000 Ry


ATOMIC_POSITIONS (angstrom)
Zn               0.0017854137        1.5108262143        1.1284866398
Zn              -1.3068517490        3.7726343765        1.1226018279
Zn              -2.6147858847        6.0363586300        1.1332278221
Zn              -3.9238881130        8.3041958771        1.1169784222
Zn               2.6100684603        1.5121854547        1.1321016256
Zn               1.3091324527        3.7697289201        1.1398753085
Zn              -0.0012492889        6.0351002473        1.1226104123
Zn              -1.3081370358        8.3020864953        1.1301535568
Zn               5.2340184032        1.5107781351        1.1381415649
Zn               3.9191643343        3.7726282238        1.0976262539
Zn               2.6195363120        6.0400050274        1.1372221290
Zn               1.3065429963        8.3017273763        1.1242326695
Zn               7.8411332006        1.5114534911        1.1248184535
Zn               6.5378499735        3.7709521392        1.1385090763
Zn               5.2260061546        6.0401114843        1.1346804074
Zn               3.9222226564        8.2994741251        1.1292645212
Zn              -0.0016892033        1.5080029205        3.7464922504
Zn              -1.3059840580        3.7756236865        3.7401659485
Zn              -2.6168432230        6.0369634235        3.7504848945
Zn              -3.9230368339        8.3022085849        3.7346811385
Zn               2.6207401812        1.4765777582        3.7352597689
Zn               1.2929519254        3.7856372762        3.7378504001
Zn               0.0011014781        6.0348107595        3.7482047235
Zn              -1.3084647350        8.3030799211        3.7504120071
Zn               5.2226865632        1.4957187781        3.7398943627
Zn               3.9270428745        3.7588317302        3.4833791269
Zn               2.6071495653        6.0415205534        3.7445699860
Zn               1.3061788098        8.2992744090        3.7396523675
Zn               7.8439456591        1.5092790029        3.7456368017
Zn               6.5697256179        3.7974452100        3.7583110542
Zn               5.2463782100        6.0443213460        3.7456743167
Zn               3.9214112539        8.3035792808        3.7489364188
Zn               1.3105394446        0.7518370223        1.1275361619
Zn              -0.0004510692        3.0205778589        1.1243351449
Zn              -1.3074587963        5.2815772212        1.1312626399
Zn              -2.6146686286        7.5471171660        1.1294749264
Zn               3.9192969382        0.7534835039        1.1349207674
Zn               2.6182938950        3.0208548125        1.1146835468
Zn               1.3055544418        5.2822036638        1.1330607612
Zn               0.0023720302        7.5490388444        1.1308436501
Zn               6.5358900376        0.7549651758        1.1226769520
Zn               5.2255053875        3.0222515872        1.1278552217
Zn               3.9228159843        5.2802662279        1.1307423444
Zn               2.6157127678        7.5465103189        1.1253405418
Zn               9.1513575228        0.7535621713        1.1423564271
Zn               7.8412832262        3.0190595760        1.1194042414
Zn               6.5341754782        5.2826056845        1.1315220534
Zn               5.2291802530        7.5450417214        1.1183512183
Zn               1.2974815295        0.7539447450        3.7446394966
Zn              -0.0076240616        3.0113429880        3.7429659820
Zn              -1.3070154682        5.2803993728        3.7495109501
Zn              -2.6139741444        7.5450123876        3.7456666734
Zn               3.9238645730        0.7525041924        3.7419338092
Zn               2.6195332881        3.0183268799        3.6149989124
Zn               1.3076805459        5.2881979929        3.7511514766
Zn               0.0025719445        7.5487869059        3.7446855236
Zn               6.5468359776        0.7539199115        3.7471343910
Zn               5.2383822498        3.0028637738        3.5797495138
Zn               3.9180285396        5.3175115453        3.7214340089
Zn               2.6170005734        7.5487775469        3.7457370527
Zn               9.1514164067        0.7524479920        3.7527890634
Zn               7.8446255824        3.0157431425        3.7385465339
Zn               6.5363523363        5.2858080767        3.7474202406
Zn               5.2268828655        7.5469775335        3.7385141861
C                3.3324295426        2.3200156902       11.2716269362
C                3.4452951995        2.5817376911        9.8753702760
C                2.3920010110        3.2007242579        9.1742823025
C                4.6116877000        2.2249621523        9.1703497013
C                2.4975182008        3.4572475382        7.8230538279
C                4.7250418427        2.4759366913        7.8151136509
C                3.6621875055        3.0939685888        7.1865445550
N                3.2395569841        2.1045655577       12.4156380525
N                3.7432527362        3.3647406353        6.0064526595
H                2.9937376286        3.8319926053        5.3872515032
H                4.6419974943        3.0773420778        5.3749396751
H                5.4332254330        1.7461032857        9.7006474684
H                1.4854757803        3.4821613690        9.7069911670
H                5.6336818128        2.1985911587        7.2807594762
H                1.6774501063        3.9387992995        7.2866180784



     Writing config-only to output data dir /home/ys/Research/PSID_server_room/qe/zinc_surface_ABN.relax/Zn_002_ABN/pwscf.save/ :
     XML data file
     NEW-OLD atomic charge density approx. for the potential

     negative rho (up, down):  3.625E-03 0.000E+00

     total cpu time spent up to now is     2570.4 secs

     Self-consistent Calculation

     iteration #  1     ecut=    50.00 Ry     beta= 0.70
     Davidson diagonalization with overlap
     ethr =  1.00E-06,  avg # of iterations =  8.0

     negative rho (up, down):  1.320E-03 0.000E+00

     total cpu time spent up to now is     2758.0 secs

     total energy              =  -29635.58639715 Ry
     estimated scf accuracy    <       0.06332597 Ry

     iteration #  2     ecut=    50.00 Ry     beta= 0.70
     Davidson diagonalization with overlap
     ethr =  4.78E-06,  avg # of iterations = 12.0

     negative rho (up, down):  1.465E-03 0.000E+00

     total cpu time spent up to now is     2837.8 secs

     total energy              =  -29635.54747932 Ry
     estimated scf accuracy    <       0.22070987 Ry

     iteration #  3     ecut=    50.00 Ry     beta= 0.70
     Davidson diagonalization with overlap
     ethr =  4.78E-06,  avg # of iterations = 14.0

     negative rho (up, down):  1.658E-03 0.000E+00

     total cpu time spent up to now is     2913.0 secs

     total energy              =  -29635.52737497 Ry
     estimated scf accuracy    <       1.21165691 Ry

     iteration #  4     ecut=    50.00 Ry     beta= 0.70
     Davidson diagonalization with overlap
     ethr =  4.78E-06,  avg # of iterations = 14.0

     negative rho (up, down):  1.643E-03 0.000E+00

     total cpu time spent up to now is     2982.4 secs

     total energy              =  -29635.56255080 Ry
     estimated scf accuracy    <       0.64205599 Ry

     iteration #  5     ecut=    50.00 Ry     beta= 0.70
     Davidson diagonalization with overlap
     ethr =  4.78E-06,  avg # of iterations = 16.0

     negative rho (up, down):  1.627E-03 0.000E+00

     total cpu time spent up to now is     3049.7 secs

     total energy              =  -29635.59645011 Ry
     estimated scf accuracy    <       0.02642554 Ry

     iteration #  6     ecut=    50.00 Ry     beta= 0.70
     Davidson diagonalization with overlap
     ethr =  2.00E-06,  avg # of iterations =  3.0

     negative rho (up, down):  1.630E-03 0.000E+00

     total cpu time spent up to now is     3109.6 secs

     total energy              =  -29635.59948904 Ry
     estimated scf accuracy    <       0.00451031 Ry

     iteration #  7     ecut=    50.00 Ry     beta= 0.70
     Davidson diagonalization with overlap
     ethr =  3.41E-07,  avg # of iterations =  2.0

     negative rho (up, down):  1.630E-03 0.000E+00

     total cpu time spent up to now is     3166.7 secs

     total energy              =  -29635.60013995 Ry
     estimated scf accuracy    <       0.00121768 Ry

     iteration #  8     ecut=    50.00 Ry     beta= 0.70
     Davidson diagonalization with overlap
     ethr =  9.20E-08,  avg # of iterations =  2.0

     negative rho (up, down):  1.630E-03 0.000E+00

     total cpu time spent up to now is     3223.7 secs

     total energy              =  -29635.60025804 Ry
     estimated scf accuracy    <       0.00053000 Ry

     iteration #  9     ecut=    50.00 Ry     beta= 0.70
     Davidson diagonalization with overlap
     ethr =  4.00E-08,  avg # of iterations =  2.0

     negative rho (up, down):  1.630E-03 0.000E+00

     total cpu time spent up to now is     3280.1 secs

     total energy              =  -29635.60032159 Ry
     estimated scf accuracy    <       0.00009927 Ry

     iteration # 10     ecut=    50.00 Ry     beta= 0.70
     Davidson diagonalization with overlap
     ethr =  7.50E-09,  avg # of iterations =  2.0

     negative rho (up, down):  1.630E-03 0.000E+00

     total cpu time spent up to now is     3336.9 secs

     total energy              =  -29635.60033175 Ry
     estimated scf accuracy    <       0.00000898 Ry

     iteration # 11     ecut=    50.00 Ry     beta= 0.70
     Davidson diagonalization with overlap
     ethr =  6.78E-10,  avg # of iterations =  3.0

     negative rho (up, down):  1.630E-03 0.000E+00

     total cpu time spent up to now is     3396.7 secs

     total energy              =  -29635.60033250 Ry
     estimated scf accuracy    <       0.00000737 Ry

     iteration # 12     ecut=    50.00 Ry     beta= 0.70
     Davidson diagonalization with overlap
     ethr =  5.56E-10,  avg # of iterations =  2.0

     negative rho (up, down):  1.630E-03 0.000E+00

     total cpu time spent up to now is     3453.2 secs

     total energy              =  -29635.60033335 Ry
     estimated scf accuracy    <       0.00000580 Ry

     iteration # 13     ecut=    50.00 Ry     beta= 0.70
     Davidson diagonalization with overlap
     ethr =  4.38E-10,  avg # of iterations =  2.0

     negative rho (up, down):  1.630E-03 0.000E+00

     total cpu time spent up to now is     3509.6 secs

     End of self-consistent calculation

          k = 0.0000 0.0000 0.0000 ( 47459 PWs)   bands (ev):

  -129.2312-129.2268-129.0157-129.0023-129.0009-128.9859-128.9810-128.9800
  -128.9760-128.9702-128.9619-128.9552-128.9420-128.8232-128.6031-128.5893
  -128.5779-128.5757-128.5688-128.5666-128.5602-128.5592-128.5512-128.5499
  -128.5387-128.5312-128.5288-128.5281-128.5190-128.4597-128.3979-128.3917
  -127.8970-127.8840-127.8786-127.8785-127.8777-127.8717-127.8692-127.8662
  -127.8648-127.8540-127.8498-127.8412-127.8400-127.8332-127.8205-127.7893
  -127.7729-127.7238-127.4606-127.4275-127.4269-127.4251-127.4202-127.4192
  -127.4152-127.4101-127.4094-127.3887-127.3773-127.3269-127.1521-127.1156
   -85.2773 -85.2487 -85.2230 -85.2051 -85.1989 -85.1964 -85.1903 -85.1862
   -85.1858 -85.1802 -85.1653 -85.1364 -85.1291 -85.1143 -85.0908 -85.0801
   -85.0691 -85.0554 -84.9842 -84.9437 -84.9409 -84.9229 -84.9159 -84.9084
   -84.9053 -84.9032 -84.8536 -84.8502 -84.7846 -84.7581 -84.7234 -84.7179
   -84.6122 -84.5890 -84.4371 -84.3897 -84.3831 -84.3737 -84.3637 -84.3575
   -84.3503 -84.3499 -84.3242 -84.2773 -84.2464 -84.1156 -83.9012 -83.8944
   -83.8906 -83.8737 -83.8622 -83.8332 -83.6398 -83.6349 -83.6336 -83.6302
   -83.6241 -83.6121 -83.6087 -83.6048 -83.5782 -83.5612 -83.5389 -83.4011
   -82.3110 -82.2931 -82.2306 -82.2288 -82.2266 -82.2260 -82.2235 -82.2204
   -82.2193 -82.2168 -82.2101 -82.1940 -82.1931 -82.1818 -82.1782 -82.1764
   -82.1623 -82.1604 -82.1574 -82.1536 -82.1522 -82.1509 -82.1469 -82.1418
   -82.1310 -82.0566 -81.9669 -81.9605 -81.9597 -81.9582 -81.9568 -81.9512
   -81.9477 -81.9451 -81.9437 -81.9368 -81.9318 -81.9303 -81.9257 -81.9238
   -81.9183 -81.9149 -81.9110 -81.9058 -81.9011 -81.8902 -81.8878 -81.8298
   -81.8137 -81.8009 -81.5802 -81.5765 -81.5700 -81.5685 -81.5681 -81.5628
   -81.5575 -81.5538 -81.5496 -81.5419 -81.5375 -81.5320 -81.5283 -81.5255
   -81.5153 -81.5080 -81.4877 -81.4844 -81.4800 -81.4777 -81.4725 -81.4706
   -81.4694 -81.4607 -81.4489 -81.4471 -81.4350 -81.4325 -81.4213 -81.3917
   -81.3562 -81.3239 -81.3181 -81.3156 -81.3137 -81.3066 -81.3061 -81.3016
   -81.3005 -81.2736 -81.2703 -81.2359 -81.1726 -81.1292 -81.1100 -81.1070
   -81.0854 -81.0644 -80.9309 -80.9255 -80.9232 -80.9123 -80.9098 -80.9055
   -80.9001 -80.8957 -80.8908 -80.8742 -80.8567 -80.8295 -80.7342 -80.7305
   -80.7276 -80.7106 -80.7040 -80.7016 -80.6452 -80.6420 -80.6359 -80.6330
   -80.6248 -80.6225 -80.6168 -80.6167 -80.6124 -80.5967 -80.5928 -80.5398
   -17.3917 -15.8621 -15.8466 -15.8363 -15.8312 -15.8030 -15.7979 -15.7787
   -15.7719 -15.7650 -15.7588 -15.6860 -15.6506 -15.1235 -15.1216 -15.1175
   -15.0413 -15.0296 -14.9971 -14.3404 -13.8207 -13.7810 -13.7775 -13.7684
   -13.7596 -13.7422 -13.7157 -13.7041 -13.6896 -13.6845 -13.6729 -13.6633
   -13.6599 -13.6316 -13.6282 -13.6052 -13.5983 -13.5706 -13.5594 -13.5467
   -13.4475 -13.0018 -12.9953 -12.9843 -12.9777 -12.9733 -12.9450 -12.9299
   -12.9135 -12.9044 -12.8999 -12.8935 -12.8811 -12.8705 -12.8631 -12.8573
   -12.8274 -12.8133 -12.8008 -12.5987 -12.5922 -12.5839 -12.5704 -12.5288
   -12.4989 -12.4635 -12.4563 -12.4532 -12.4461 -12.4206 -12.4180 -12.4078
   -12.4022 -12.3977 -12.3968 -12.3755 -12.3614 -12.3319 -12.3059 -12.2874
   -12.2604 -12.2546 -12.2494 -12.2338 -12.2272 -12.2245 -12.1800 -12.1774
   -12.1749 -12.1570 -12.1367 -12.1336 -12.1232 -12.1049 -12.0572 -12.0261
   -11.9977 -11.9934 -11.9813 -11.9513 -11.9355 -11.8736 -11.8713 -11.8588
   -11.7647 -11.7643 -11.7421 -11.7374 -11.7033 -11.6922 -11.6391 -11.6210
   -11.6078 -11.6004 -11.5933 -11.5752 -11.5708 -11.5674 -11.5631 -11.5396
   -11.5350 -11.5272 -11.5089 -11.5032 -11.5004 -11.4908 -11.4774 -11.4474
   -11.4405 -11.4350 -11.3943 -11.3751 -11.3114 -11.3080 -11.3016 -11.2941
   -11.2908 -11.2627 -11.2423 -11.2221 -11.1889 -11.1858 -11.1456 -11.1298
   -11.0963 -11.0946 -11.0594 -10.9923 -10.9865 -10.9434 -10.7848 -10.7747
   -10.7711 -10.7498 -10.7327 -10.6999 -10.5399 -10.5343 -10.5247 -10.5211
   -10.4977 -10.4912 -10.4683 -10.4612 -10.4200 -10.3938 -10.3627 -10.3377
   -10.3187 -10.2671 -10.1552 -10.0417 -10.0011  -9.9876  -9.9758  -9.9497
    -9.3439  -9.2476  -9.2283  -9.2244  -9.2095  -9.1975  -9.1745  -8.7129
    -8.6187  -8.5956  -8.5900  -8.5869  -8.5613  -8.5224  -8.5183  -8.5024
    -8.4566  -8.2546  -8.2148  -8.2083  -8.2024  -8.1996  -8.1936  -8.1539
    -8.1420  -8.1374  -8.1326  -8.1208  -8.0804  -8.0406  -8.0086  -7.9933
    -7.9702  -7.9646  -7.9551  -7.9449  -7.9273  -7.9048  -7.8925  -7.8696
    -7.8602  -7.8476  -7.7607  -7.7435  -7.7414  -7.7372  -7.7304  -7.6885
    -7.6710  -7.6661  -7.6614  -7.6524  -7.6457  -7.5571  -7.5145  -7.5098
    -7.5022  -7.4904  -7.4715  -7.4543  -7.4465  -7.4344  -7.4209  -7.4101
    -7.3918  -7.3821  -7.3709  -7.3657  -7.3616  -7.3559  -7.3325  -7.3312
    -7.3205  -7.3130  -7.3045  -7.2754  -7.2629  -7.2563  -7.2427  -7.2280
    -7.2035  -7.0311  -7.0253  -6.9900  -6.9381  -6.9337  -6.9276  -6.9215
    -6.9027  -6.8768  -6.6663  -6.6595  -6.5639  -6.5471  -6.5069  -6.3802
    -6.3554  -6.3068  -6.3042  -6.3020  -6.2983  -6.2863  -6.2785  -6.2772
    -6.2679  -6.2615  -6.1707  -6.1597  -6.1440  -6.1368  -6.1272  -6.1158
    -6.0938  -6.0855  -6.0813  -6.0726  -6.0590  -6.0533  -6.0391  -5.9958
    -5.8908  -5.8401  -5.7795  -5.7743  -5.7710  -5.7625  -5.7546  -5.7498
    -5.7169  -5.6885  -5.6803  -5.6774  -5.6716  -5.6535  -5.6387  -5.6303
    -5.6275  -5.5868  -5.5407  -5.5224  -5.5093  -5.5022  -5.4931  -5.4883
    -5.4871  -5.4838  -5.4778  -5.4710  -5.4578  -5.4530  -5.4513  -5.4461
    -5.4436  -5.4414  -5.4407  -5.4389  -5.4242  -5.4139  -5.3720  -5.3470
    -5.3248  -5.2573  -4.2915  -4.2709  -4.2514  -4.1900  -4.1815  -4.1750
    -4.1659  -4.1579  -4.1566  -4.0292  -4.0243  -4.0154  -4.0115  -4.0002
    -3.9970  -3.8289  -3.5564  -3.4348  -3.3654  -3.1484  -3.1399  -3.1118
    -3.1077  -3.0122  -2.9630  -2.7533  -2.0914  -1.9161  -1.8919  -1.8580
    -1.4868  -1.2844  -1.0631  -1.0338  -1.0187  -0.7974  -0.7886  -0.7855
    -0.7541  -0.5628  -0.4852  -0.2344   0.0920   0.1715   0.8627   1.0399
     1.0636   1.0723   1.8001   2.2819   2.3435   2.3536   2.3627   2.3905
     2.4349   2.5669   2.6830   2.6845   2.6920   2.6994   2.7015   2.7204
     3.5201   3.5544   3.5572   3.5953   3.6223   3.6557   4.0537   4.0679
[...]
    -9.4208  -9.3199  -9.3127  -9.2812  -9.2073  -9.1957  -9.1599  -9.1519
    -9.0877  -8.9807  -8.9242  -8.9217  -8.8844  -8.8296  -8.7757  -8.7283
    -8.7070  -8.6714  -8.6161  -8.6136  -8.5733  -8.5396  -8.4731  -8.4650
    -8.4245  -8.3901  -8.3626  -8.3309  -8.2886  -8.2777  -8.2432  -8.1812
    -8.1793  -8.1460  -8.1351  -8.1051  -8.0402  -8.0346  -8.0058  -7.9414
    -7.9246  -7.8999  -7.8675  -7.8368  -7.7984  -7.7897  -7.7503  -7.7170
    -7.6884  -7.6546  -7.6350  -7.5637  -7.5557  -7.5346  -7.5204  -7.4837
    -7.4226  -7.3940  -7.3836  -7.3715  -7.3544  -7.3469  -7.2974  -7.2900
    -7.2640  -7.2242  -7.2088  -7.1908  -7.1794  -7.1168  -7.0858  -7.0792
    -7.0516  -7.0304  -7.0049  -6.9788  -6.9685  -6.9432  -6.9109  -6.8830
    -6.8335  -6.8317  -6.8120  -6.7960  -6.7778  -6.7596  -6.7294  -6.6775
    -6.6571  -6.6369  -6.6218  -6.6086  -6.5614  -6.5508  -6.5436  -6.5194
    -6.4868  -6.4712  -6.4389  -6.4215  -6.3894  -6.3785  -6.3515  -6.3162
    -6.3065  -6.2542  -6.2362  -6.1966  -6.1871  -6.1797  -6.1517  -6.1453
    -6.1260  -6.1204  -6.0839  -6.0766  -6.0276  -6.0227  -5.9791  -5.9636
    -5.9471  -5.9228  -5.9063  -5.8984  -5.8905  -5.8718  -5.8711  -5.8564
    -5.8514  -5.7967  -5.7858  -5.7721  -5.7618  -5.7428  -5.7342  -5.7237
    -5.6982  -5.6679  -5.6532  -5.6459  -5.6375  -5.6160  -5.5952  -5.5643
    -5.5487  -5.5426  -5.5205  -5.4972  -5.4794  -5.4687  -5.4430  -5.4282
    -5.4053  -5.4022  -5.3828  -5.3708  -5.3590  -5.3449  -5.3365  -5.3008
    -5.2809  -5.2657  -5.2173  -5.1995  -5.1773  -5.1353  -5.1023  -5.0757
    -5.0395  -4.9815  -4.9598  -4.9224  -4.7497  -4.7293  -4.4622  -4.4226
    -4.3898  -4.3300  -4.2909  -4.2236  -4.2072  -4.1838  -4.1340  -4.1003
    -4.0759  -4.0608  -4.0456  -4.0079  -4.0001  -3.9859  -3.9422  -3.8979
    -3.8553  -3.8292  -3.7525  -3.7120  -3.6574  -3.5807  -3.5529  -3.5265
    -3.4645  -3.4325  -3.3912  -3.3655  -3.3045  -3.2706  -3.1011  -3.0820
    -2.7649  -2.6094  -2.5699  -2.4811  -2.2460  -1.8538  -1.6406  -1.5373
    -1.3839  -1.3606  -0.7747  -0.7461  -0.4683  -0.4065  -0.2730   0.0326
     0.1817   0.2037   0.2365   0.2832   0.3195   0.3441   0.4422   0.6200
     0.8879   1.0487   1.1531   1.1734   1.2205   1.3105   1.6795   1.7677
     2.4254   3.0078   3.1780   3.6355   3.6822   3.7472   3.9121   3.9952
     4.0316   4.0578   4.0775   4.1353   4.1498   4.1894   4.2304   4.2343
     4.2486   4.2840   4.3104   4.3355   4.3597   4.3812   4.4183   4.4541
     4.4860   4.5666   4.5874   4.6419   4.7391   4.7639   4.8445   5.0095
     5.0637   5.1362   5.2191   5.2789   5.3236   5.3868   5.4849   5.5651
     5.6178   5.6984   5.7965   5.8950   5.9833   6.1144   6.2529   6.3625
     6.5042   6.5904   6.7260   6.7696   6.8847   6.9214   7.0395   7.1991
     7.2031   7.3217   7.4542   7.4862   7.5503   7.6860   7.9365   8.0641
     8.1321   8.1738   8.2210   8.2472   8.2676   8.3023   8.3867   8.5298
     8.5831   8.6073   8.6340   8.7127   8.7947   8.8494   8.8969   8.9311
     8.9740   9.0122   9.0781   9.1024   9.1303   9.2005   9.2492   9.2703
     9.3553   9.4159   9.5297   9.5775   9.6469   9.6715   9.7179   9.7772
     9.8101   9.8402   9.9214   9.9630   9.9739  10.0140  10.0341  10.0678
    10.0792  10.1276  10.1417  10.2050  10.2301  10.2733  10.3791  10.4385
    10.5219  10.5841  10.7690  10.7841  10.8286  10.9001  10.9580  11.0378
    11.0755  11.1182  11.1589  11.2007  11.2603  11.2836  11.3195  11.3932
    11.4470  11.4844  11.5147  11.5652  11.5941  11.6458  11.6555  11.6912
    11.7491  11.7870  11.8136  11.8555  11.8966  11.9361  11.9666  11.9747
    12.0254  12.0714

     the Fermi energy is     4.1916 ev

!    total energy              =  -29649.65308382 Ry
     estimated scf accuracy    <       0.00000082 Ry
     smearing contrib. (-TS)   =      -0.04832653 Ry
     internal energy E=F+TS    =  -29649.60475730 Ry

     The total energy is F=E-TS. E is the sum of the following terms:
     one-electron contribution = -254819.83693192 Ry
     hartree contribution      =  127250.96531923 Ry
     xc contribution           =   -2791.74912074 Ry
     ewald contribution        =  100754.22419090 Ry
     one-center paw contrib.   =     -43.20821476 Ry

     convergence has been achieved in  22 iterations

     negative rho (up, down):  1.472E-03 0.000E+00

     Forces acting on atoms (cartesian axes, Ry/au):

     atom    1 type  1   force =    -0.33821729   -0.10556118   -0.34836724
     atom    2 type  1   force =    -0.08579776   -0.01151397    0.03518405
     atom    3 type  1   force =    -0.14526072   -0.02048463    0.17146078
     atom    4 type  1   force =     0.14433669   -0.11511191   -0.65218244
     atom    5 type  1   force =     0.19138650    0.43621870    0.66572924
     atom    6 type  1   force =     0.28447402   -0.23946636    1.33690400
     atom    7 type  1   force =     0.03013643    0.10619700   -1.04455278
     atom    8 type  1   force =     0.08098213   -0.04659317   -0.41248523
     atom    9 type  1   force =    -0.02407772    0.12355201    0.95771439
     atom   10 type  1   force =     0.29222799    0.35216065   -1.96404435
     atom   11 type  1   force =    -0.04122280   -0.03206878    0.72283263
     atom   12 type  1   force =    -0.12540526   -0.08422699    0.01908111
     atom   13 type  1   force =     0.42529766   -0.10866891   -0.09367975
     atom   14 type  1   force =     0.13490620   -0.10033291    1.25381580
     atom   15 type  1   force =     0.05236907    0.14939428    0.89512420
     atom   16 type  1   force =     0.13522332    0.26736451    0.15402450
     atom   17 type  1   force =    -0.17531601    0.15859977   -0.30758984
     atom   18 type  1   force =    -0.13434170   -0.11908453   -0.15207645
     atom   19 type  1   force =    -0.00954237   -0.02716657    0.49430002
     atom   20 type  1   force =     0.16143674    0.16883672   -0.74850846
     atom   21 type  1   force =     0.20775314    1.02486253    0.21616696
     atom   22 type  1   force =     1.06421666   -0.63203060    0.14871109
     atom   23 type  1   force =    -0.06785089    0.06832573   -0.23643423
     atom   24 type  1   force =    -0.05633527   -0.04449616    0.79140327
     atom   25 type  1   force =    -0.04681215    1.24820288    0.43495222
     atom   26 type  1   force =    -0.50021541   -0.21310556    1.83764888
     atom   27 type  1   force =     0.76428844   -0.34667884   -0.12379673
     atom   28 type  1   force =    -0.02434890    0.22306378   -0.61623695
     atom   29 type  1   force =    -0.08903850   -0.10213309    0.02991120
     atom   30 type  1   force =    -0.50339723   -0.44412086    0.78796884
     atom   31 type  1   force =    -0.88280235   -0.18406281    0.68678816
     atom   32 type  1   force =     0.05281029   -0.06714059    0.32559287
     atom   33 type  1   force =    -0.04793129   -0.12710011    0.24537151
     atom   34 type  1   force =     0.38315656    0.25234177   -0.70449288
     atom   35 type  1   force =     0.13309266   -0.08728636    0.64855919
     atom   36 type  1   force =    -0.24693100    0.02207362    0.37765396
     atom   37 type  1   force =     0.06110041    0.36657690   -0.13282074
     atom   38 type  1   force =    -0.36360079    0.15937402   -0.92474450
     atom   39 type  1   force =     0.07655142   -0.20802040   -0.20495007
     atom   40 type  1   force =     0.14655078   -0.17942498    0.72046578
     atom   41 type  1   force =    -0.16022705    0.07288313   -0.77955531
     atom   42 type  1   force =     0.11249353    0.03291503   -0.72108950
     atom   43 type  1   force =     0.01031445   -0.43546648   -0.14589168
     atom   44 type  1   force =    -0.04455183   -0.09520152   -0.66871922
     atom   45 type  1   force =    -0.00716525    0.13910830    1.17806528
     atom   46 type  1   force =    -0.33559144    0.14669418   -0.96904107
     atom   47 type  1   force =    -0.18209893   -0.20204432   -0.81793697
     atom   48 type  1   force =    -0.09053282   -0.16960934   -0.84853381
     atom   49 type  1   force =     0.63404667   -0.02144163    0.37145555
     atom   50 type  1   force =     0.54538883    0.57932530   -0.08195923
     atom   51 type  1   force =    -0.04692726   -0.03575658    0.29454231
     atom   52 type  1   force =    -0.01685818    0.05835076   -0.05009657
     atom   53 type  1   force =     0.27818345    0.60544769   -0.80809766
     atom   54 type  1   force =    -0.01172991   -0.00112740   -0.02639498
     atom   55 type  1   force =     0.10482412   -0.74414605    0.38459416
     atom   56 type  1   force =    -0.10681315    0.09748896   -0.14462762
     atom   57 type  1   force =    -0.63940973    0.21418906    0.13638403
     atom   58 type  1   force =     0.09435650   -0.04097132    0.21653063
     atom   59 type  1   force =     0.17028742   -0.93887987   -0.11995186
     atom   60 type  1   force =    -0.11073815   -0.03315561    0.11808803
     atom   61 type  1   force =    -0.11474360    0.01973844    0.60211796
     atom   62 type  1   force =    -0.92676483    0.67812241   -0.84588639
     atom   63 type  1   force =    -0.08363542   -1.05200424   -1.01318785
     atom   64 type  1   force =    -0.00433280   -0.34462537   -0.57834051
     atom   65 type  2   force =     0.00385966    0.00010455    0.12506294
     atom   66 type  2   force =    -0.02790940   -0.02938281    0.18387435
     atom   67 type  2   force =    -0.12145327   -0.08743724    0.43312409
     atom   68 type  2   force =     0.11545962   -0.09984978    0.30003442
     atom   69 type  2   force =    -0.30971565    0.05661312   -0.31166852
     atom   70 type  2   force =     0.08446373   -0.25677203   -0.15158221
     atom   71 type  2   force =     0.22229826   -0.22782195   -0.22025707
     atom   72 type  3   force =     0.00147202    0.00560435   -0.05519413
     atom   73 type  3   force =     0.05049836    0.56981363   -0.39584221
     atom   74 type  4   force =     0.11888971    0.07590698   -0.08873855
     atom   75 type  4   force =     0.02639794    0.08747040   -0.10933676
     atom   76 type  4   force =     0.07442936   -0.01525424    0.12084982
     atom   77 type  4   force =    -0.10294493    0.02052019    0.12406153
     atom   78 type  4   force =     0.01037759   -0.06217425    0.04522398
     atom   79 type  4   force =    -0.12774929   -0.04843901    0.02751860

     Total force =     6.825026     Total SCF correction =     0.012539
     Energy error            =      2.8E+00 Ry
     Gradient error          =      2.0E+00 Ry/Bohr

     number of scf cycles    =   9
     number of bfgs steps    =   8

     energy             old  =  -29646.8972341915 Ry
     energy             new  =  -29649.6530838235 Ry

     CASE: energy            _new < energy            _old


     WARNING: bfgs curvature condition failed, Theta= 0.062
     new trust radius        =       0.8000000000 bohr
     new conv_thr            =       0.0000010000 Ry


ATOMIC_POSITIONS (angstrom)
Zn               0.0120067682        1.5158366450       -0.0300843103
Zn              -1.3155493668        3.7563325496       -0.0736964162
Zn              -2.6322731810        6.0189340273        0.1453747859
Zn              -3.9266694913        8.3053948408       -0.2818052695
Zn               2.5870246736        1.5620884513        0.2215284710
Zn               1.3445804991        3.7263806427        0.5209033431
Zn              -0.0097112317        6.0205925180       -0.2507546980
Zn              -1.3096473664        8.3157715670       -0.0010654869
Zn               5.2791434814        1.5175922156        0.3680543327
Zn               3.9461274369        3.8160815896       -1.0785568092
Zn               2.6450458271        6.0500137832        0.3085418151
Zn               1.3157347435        8.3114447219       -0.0476634572
Zn               7.8622210767        1.4983877422       -0.0603216142
Zn               6.5567969031        3.7426013214        0.4418190456
Zn               5.2018712802        6.0706091580        0.2961129631
Zn               3.9326630913        8.3043618636        0.0684165145
Zn              -0.0426139891        1.5055338849        4.8336635453
Zn              -1.3195730235        3.7787853184        4.7224519936
Zn              -2.6228870433        6.0356537946        5.0036794459
Zn              -3.9164847504        8.3032067872        4.5360527979
Zn               2.6417936823        1.5657820000        5.0022940144
Zn               1.5492453507        3.6428218356        5.0364321107
Zn               0.0056583976        6.0301430863        4.8603398655
Zn              -1.3248508399        8.3037476914        5.0638154971
Zn               5.2135194135        1.8422636029        5.2381130483
Zn               3.8701602183        3.6221319933        0.5628571868
Zn               2.6106663403        6.0472258530        4.8675671320
Zn               1.3044964393        8.3009905996        4.6405542444
Zn               7.8700063677        1.5293408810        4.8512378714
Zn               6.5613630325        3.7986225399        5.6525703724
Zn               5.2854217752        6.0562477507        5.0241716679
Zn               3.9374235990        8.2953963862        4.9634890165
Zn               1.3261019051        0.7384609812        0.0648523203
Zn               0.0497862080        3.0565753680       -0.1650131862
Zn              -1.2974863207        5.2905894624        0.1952890060
Zn              -2.6111855962        7.5513031486        0.1142332710
Zn               3.9220802323        0.7582292779        0.1229700545
Zn               2.6098695878        3.0551370057       -0.3676624430
Zn               1.3072552791        5.2665458798        0.0750952608
Zn              -0.0180342772        7.5254250490        0.1957259385
Zn               6.5203122517        0.7776212128       -0.1951327666
Zn               5.1898598810        3.0653559005       -0.0304982997
Zn               3.9317442168        5.1950051041        0.1539619200
Zn               2.6305398218        7.5307763532       -0.1323238261
Zn               9.1637331938        0.7587279703        0.5117264201
Zn               7.7927717565        3.0333257674       -0.2986643775
Zn               6.4975733977        5.2535150262       -0.0520630119
Zn               5.2190364192        7.5158706110       -0.2921244941
Zn               1.2314922654        0.7501898673        4.9247914922
Zn               0.0173435744        3.0205779828        4.8106994706
Zn              -1.2988707408        5.2865359747        4.9668910360
Zn              -2.6341229673        7.5427995603        4.8508582340
Zn               4.0841651830        0.7123740363        4.6794626996
Zn               2.9852633726        3.2177274810        2.9102639638
Zn               1.2901184431        5.2833564989        5.0440904785
Zn              -0.0076532442        7.5400452045        4.8065428392
Zn               6.4943063894        0.7798058317        4.9260146704
Zn               5.2138859355        2.8883376445        2.2213760178
Zn               3.9110888482        4.9176142766        4.7873336445
Zn               2.6187537514        7.5787291522        4.8737328460
Zn               9.1456439405        0.7337587113        5.0827917699
Zn               7.7918466464        3.0096701511        4.5221730076
Zn               6.5551965937        5.2714379742        4.6875475577
Zn               5.2136492343        7.5916729979        4.6355399937
C                3.3363150657        2.3272644930       11.2609725802
C                3.4465783015        2.5745728734        9.9114739537
C                2.3144991849        3.1960845515        9.2805678505
C                4.6601044140        2.1742419499        9.2455465905
C                2.2548313509        3.4700117563        8.1074851102
C                4.8423455765        2.3134392629        8.0298994473
C                3.5551062832        2.8852485048        8.5880023697
N                3.2376356017        2.1007133875       12.4201255833
N                3.5548943256        3.7638177038        7.7530109814
H                2.6940340785        4.1667337941        7.1509254339
H                4.7967715035        2.8590805069        7.0246043286
H                5.4463507193        1.7404201257        9.7345950801
H                1.4661644153        3.4841487134        9.7462687862
H                5.6328461080        2.2090535182        7.2628892246
H                1.6845707749        3.9432807528        7.2740781529



     Writing config-only to output data dir /home/ys/Research/PSID_server_room/qe/zinc_surface_ABN.relax/Zn_002_ABN/pwscf.save/ :
     XML data file
     NEW-OLD atomic charge density approx. for the potential

     negative rho (up, down):  2.738E-03 0.000E+00

     total cpu time spent up to now is    11860.8 secs

     Self-consistent Calculation

     iteration #  1     ecut=    50.00 Ry     beta= 0.70
     Davidson diagonalization with overlap
     ethr =  1.00E-06,  avg # of iterations = 15.0

     negative rho (up, down):  1.017E-03 0.000E+00

     total cpu time spent up to now is    12101.1 secs

     total energy              =  -29652.35105942 Ry
     estimated scf accuracy    <       0.46508039 Ry

     iteration #  2     ecut=    50.00 Ry     beta= 0.70
     Davidson diagonalization with overlap
     ethr =  3.51E-05,  avg # of iterations = 15.0

     negative rho (up, down):  1.350E-03 0.000E+00

     total cpu time spent up to now is    12179.9 secs

     total energy              =  -29651.89163730 Ry
     estimated scf accuracy    <       4.42444761 Ry

     iteration #  3     ecut=    50.00 Ry     beta= 0.70
     Davidson diagonalization with overlap
     ethr =  3.51E-05,  avg # of iterations = 12.0

     negative rho (up, down):  1.460E-03 0.000E+00

     total cpu time spent up to now is    12252.4 secs

     total energy              =  -29652.03684391 Ry
     estimated scf accuracy    <       7.55374063 Ry

     iteration #  4     ecut=    50.00 Ry     beta= 0.70
     Davidson diagonalization with overlap
     ethr =  3.51E-05,  avg # of iterations = 11.0

     negative rho (up, down):  1.407E-03 0.000E+00

     total cpu time spent up to now is    12320.8 secs

     total energy              =  -29651.73614032 Ry
     estimated scf accuracy    <      38.64363202 Ry

     iteration #  5     ecut=    50.00 Ry     beta= 0.70
     Davidson diagonalization with overlap
     ethr =  3.51E-05,  avg # of iterations = 12.0

     negative rho (up, down):  1.322E-03 0.000E+00

     total cpu time spent up to now is    12390.1 secs

     total energy              =  -29652.42252348 Ry
     estimated scf accuracy    <       1.23128595 Ry

     iteration #  6     ecut=    50.00 Ry     beta= 0.70
     Davidson diagonalization with overlap
     ethr =  3.51E-05,  avg # of iterations =  3.0

     negative rho (up, down):  1.323E-03 0.000E+00

     total cpu time spent up to now is    12449.1 secs

     total energy              =  -29652.44406343 Ry
     estimated scf accuracy    <       0.40850388 Ry

     iteration #  7     ecut=    50.00 Ry     beta= 0.70
     Davidson diagonalization with overlap
     ethr =  3.09E-05,  avg # of iterations =  3.0

     negative rho (up, down):  1.325E-03 0.000E+00

     total cpu time spent up to now is    12507.0 secs

     total energy              =  -29652.47470644 Ry
     estimated scf accuracy    <       0.09620344 Ry

     iteration #  8     ecut=    50.00 Ry     beta= 0.70
     Davidson diagonalization with overlap
     c_bands:  1 eigenvalues not converged
     ethr =  7.27E-06,  avg # of iterations = 20.0

     negative rho (up, down):  1.327E-03 0.000E+00

     total cpu time spent up to now is    12570.8 secs

     total energy              =  -29652.47995862 Ry
     estimated scf accuracy    <       0.04973987 Ry

     iteration #  9     ecut=    50.00 Ry     beta= 0.70
     Davidson diagonalization with overlap
