--------------------------------------------------------------------------
By default, for Open MPI 4.0 and later, infiniband ports on a device
are not used by default.  The intent is to use UCX for these devices.
You can override this policy by setting the btl_openib_allow_ib MCA parameter
to true.

  Local host:              psid01
  Local adapter:           mlx5_0
  Local port:              1

--------------------------------------------------------------------------
--------------------------------------------------------------------------
WARNING: There was an error initializing an OpenFabrics device.

  Local host:   psid01
  Local device: mlx5_0
--------------------------------------------------------------------------

     Program PWSCF v.7.3.1 starts on 11Feb2025 at  0:31:12 

     This program is part of the open-source Quantum ESPRESSO suite
     for quantum simulation of materials; please cite
         "P. Giannozzi et al., J. Phys.:Condens. Matter 21 395502 (2009);
         "P. Giannozzi et al., J. Phys.:Condens. Matter 29 465901 (2017);
         "P. Giannozzi et al., J. Chem. Phys. 152 154105 (2020);
          URL http://www.quantum-espresso.org", 
     in publications or presentations arising from this work. More details at
     http://www.quantum-espresso.org/quote

     Parallel version (MPI), running on     6 processors

     MPI processes distributed on     1 nodes
     65271 MiB available memory on the printing compute node when the environment starts

     Waiting for input...
     Reading input from standard input
Warning: card &CELL ignored
Warning: card / ignored

     Current dimensions of program PWSCF are:
     Max number of different atomic species (ntypx) = 10
     Max number of k-points (npk) =  40000
     Max angular momentum in pseudopotentials (lmaxx) =  4
     file O.pbe-n-kjpaw_psl.0.1.UPF: wavefunction(s)  2P renormalized

     gamma-point specific algorithms are used

     R & G space division:  proc/nbgrp/npool/nimage =       6
     Subspace diagonalization in iterative solution of the eigenvalue problem:
     one sub-group per band group will be used
     custom distributed-memory algorithm (size of sub-group:  2*  2 procs)


     Parallelization info
     --------------------
     sticks:   dense  smooth     PW     G-vecs:    dense   smooth      PW
     Min        4523    1811    451               995358   251832   31462
     Max        4526    1814    454               995362   251836   31464
     Sum       27147   10875   2721              5972159  1511005  188779

     Using Slab Decomposition



     bravais-lattice index     =           14
     lattice parameter (alat)  =      27.6269  a.u.
     unit-cell volume          =   31632.2292 (a.u.)^3
     number of atoms/cell      =           63
     number of atomic types    =            3
     number of electrons       =      1208.00
     number of Kohn-Sham states=          725
     kinetic-energy cutoff     =      50.0000  Ry
     charge density cutoff     =     500.0000  Ry
     scf convergence threshold =      1.0E-06
     mixing beta               =       0.7000
     number of iterations used =            8  plain     mixing
     energy convergence thresh.=      1.0E-04
     force convergence thresh. =      1.0E-03
     Exchange-correlation= PBE
                           (   1   4   3   4   0   0   0)
     nstep                     =          100


     celldm(1)=  27.626851  celldm(2)=   0.894135  celldm(3)=   1.937323
     celldm(4)=  -0.500000  celldm(5)=   0.000000  celldm(6)=   0.000000

     crystal axes: (cart. coord. in units of alat)
               a(1) = (   1.000000   0.000000   0.000000 )  
               a(2) = (   0.000000   0.894135   0.000000 )  
               a(3) = (   0.000000  -0.968662   1.677771 )  

     reciprocal axes: (cart. coord. in units 2 pi/alat)
               b(1) = (  1.000000 -0.000000 -0.000000 )  
               b(2) = ( -0.000000  1.118400  0.645708 )  
               b(3) = (  0.000000  0.000000  0.596029 )  


     PseudoPot. # 1 for Zn read from file:
     /home/ys/qe-7.3.1/pseudo/Standard_solid-state_pseudopotentials_SSSP_1.3.0_PBE_efficiency/Zn_pbe_v1.uspp.F.UPF
     MD5 check sum: df62231357ef9e81f77b2b3087fa5675
     Pseudo is Ultrasoft, Zval = 20.0
     Generated by new atomic code, or converted to UPF format
     Using radial grid of  943 points,  6 beta functions with: 
                l(1) =   0
                l(2) =   0
                l(3) =   1
                l(4) =   1
                l(5) =   2
                l(6) =   2
     Q(r) pseudized with  8 coefficients,  rinner =    1.100   1.100   1.100
                                                       1.100   1.100

     PseudoPot. # 2 for O  read from file:
     /home/ys/qe-7.3.1/pseudo/Standard_solid-state_pseudopotentials_SSSP_1.3.0_PBE_efficiency/O.pbe-n-kjpaw_psl.0.1.UPF
     MD5 check sum: 0234752ac141de4415c5fc33072bef88
     Pseudo is Projector augmented-wave + core cor, Zval =  6.0
     Generated using "atomic" code by A. Dal Corso  v.5.0.99 svn rev. 10869
     Shape of augmentation charge: BESSEL
     Using radial grid of 1095 points,  4 beta functions with: 
                l(1) =   0
                l(2) =   0
                l(3) =   1
                l(4) =   1
     Q(r) pseudized with 0 coefficients 


     PseudoPot. # 3 for H  read from file:
     /home/ys/qe-7.3.1/pseudo/Standard_solid-state_pseudopotentials_SSSP_1.3.0_PBE_efficiency/H.pbe-rrkjus_psl.1.0.0.UPF
     MD5 check sum: f52b6d4d1c606e5624b1dc7b2218f220
     Pseudo is Ultrasoft, Zval =  1.0
     Generated using "atomic" code by A. Dal Corso  v.5.1
     Using radial grid of  929 points,  2 beta functions with: 
                l(1) =   0
                l(2) =   0
     Q(r) pseudized with 0 coefficients 


     atomic species   valence    mass     pseudopotential
     Zn               20.00    65.39000     Zn( 1.00)
     O                 6.00    15.99940     O ( 1.00)
     H                 1.00     1.00794     H ( 1.00)

     No symmetry found



   Cartesian axes

     site n.     atom                  positions (alat units)
         1        Zn     tau(   1) = (   0.0833329   0.0894128   0.0516234  )
         2        Zn     tau(   2) = (   0.0833329   0.2682397   0.0516234  )
         3        Zn     tau(   3) = (   0.0833329   0.4470667   0.0516234  )
         4        Zn     tau(   4) = (   0.0833329   0.6258936   0.0516234  )
         5        Zn     tau(   5) = (   0.0833329   0.8047205   0.0516234  )
         6        Zn     tau(   6) = (   0.4166665   0.0894128   0.0516234  )
         7        Zn     tau(   7) = (   0.4166665   0.2682397   0.0516234  )
         8        Zn     tau(   8) = (   0.4166665   0.4470667   0.0516234  )
         9        Zn     tau(   9) = (   0.4166665   0.6258936   0.0516234  )
        10        Zn     tau(  10) = (   0.4166665   0.8047205   0.0516234  )
        11        Zn     tau(  11) = (   0.7499991   0.0894128   0.0516234  )
        12        Zn     tau(  12) = (   0.7499991   0.2682397   0.0516234  )
        13        Zn     tau(  13) = (   0.7499991   0.4470667   0.0516234  )
        14        Zn     tau(  14) = (   0.7499991   0.6258936   0.0516234  )
        15        Zn     tau(  15) = (   0.7499991   0.8047205   0.0516234  )
        16        Zn     tau(  16) = (   0.0833329  -0.0000005   0.2064919  )
        17        Zn     tau(  17) = (   0.0833329   0.1788264   0.2064919  )
        18        Zn     tau(  18) = (   0.0833329   0.3576533   0.2064919  )
        19        Zn     tau(  19) = (   0.0833329   0.5364802   0.2064919  )
        20        Zn     tau(  20) = (   0.0833329   0.7153071   0.2064919  )
        21        Zn     tau(  21) = (   0.4166665  -0.0000005   0.2064919  )
        22        Zn     tau(  22) = (   0.4166665   0.1788264   0.2064919  )
        23        Zn     tau(  23) = (   0.4166665   0.3576533   0.2064919  )
        24        Zn     tau(  24) = (   0.4166665   0.5364802   0.2064919  )
        25        Zn     tau(  25) = (   0.4166665   0.7153071   0.2064919  )
        26        Zn     tau(  26) = (   0.7499991  -0.0000005   0.2064919  )
        27        Zn     tau(  27) = (   0.7499991   0.1788264   0.2064919  )
        28        Zn     tau(  28) = (   0.7499991   0.3576533   0.2064919  )
        29        Zn     tau(  29) = (   0.7499991   0.5364802   0.2064919  )
        30        Zn     tau(  30) = (   0.7499991   0.7153071   0.2064919  )
        31        Zn     tau(  31) = (   0.2499997   0.0000007   0.1032451  )
        32        Zn     tau(  32) = (   0.2499997   0.1788276   0.1032451  )
        33        Zn     tau(  33) = (   0.2499997   0.3576545   0.1032451  )
        34        Zn     tau(  34) = (   0.2499997   0.5364814   0.1032451  )
        35        Zn     tau(  35) = (   0.2499997   0.7153083   0.1032451  )
        36        Zn     tau(  36) = (   0.5833323   0.0000007   0.1032451  )
        37        Zn     tau(  37) = (   0.5833323   0.1788276   0.1032451  )
        38        Zn     tau(  38) = (   0.5833323   0.3576545   0.1032451  )
        39        Zn     tau(  39) = (   0.5833323   0.5364814   0.1032451  )
        40        Zn     tau(  40) = (   0.5833323   0.7153083   0.1032451  )
        41        Zn     tau(  41) = (   0.9166659   0.0000007   0.1032451  )
        42        Zn     tau(  42) = (   0.9166659   0.1788276   0.1032451  )
        43        Zn     tau(  43) = (   0.9166659   0.3576545   0.1032451  )
        44        Zn     tau(  44) = (   0.9166659   0.5364814   0.1032451  )
        45        Zn     tau(  45) = (   0.9166659   0.7153083   0.1032451  )
        46        Zn     tau(  46) = (   0.2499997  -0.0894127   0.2581137  )
        47        Zn     tau(  47) = (   0.2499997   0.0894142   0.2581137  )
        48        Zn     tau(  48) = (   0.2499997   0.2682411   0.2581137  )
        49        Zn     tau(  49) = (   0.2499997   0.4470680   0.2581137  )
        50        Zn     tau(  50) = (   0.2499997   0.6258949   0.2581137  )
        51        Zn     tau(  51) = (   0.5833323  -0.0894127   0.2581137  )
        52        Zn     tau(  52) = (   0.5833323   0.0894142   0.2581137  )
        53        Zn     tau(  53) = (   0.5833323   0.2682411   0.2581137  )
        54        Zn     tau(  54) = (   0.5833323   0.4470680   0.2581137  )
        55        Zn     tau(  55) = (   0.5833323   0.6258949   0.2581137  )
        56        Zn     tau(  56) = (   0.9166659  -0.0894127   0.2581137  )
        57        Zn     tau(  57) = (   0.9166659   0.0894142   0.2581137  )
        58        Zn     tau(  58) = (   0.9166659   0.2682411   0.2581137  )
        59        Zn     tau(  59) = (   0.9166659   0.4470680   0.2581137  )
        60        Zn     tau(  60) = (   0.9166659   0.6258949   0.2581137  )
        61        O      tau(  61) = (   0.4364274   0.3709270   0.2999841  )
        62        H      tau(  62) = (   0.3823266   0.3428107   0.3261759  )
        63        H      tau(  63) = (   0.4792694   0.3741263   0.3505640  )

     number of k points=     1  Gaussian smearing, width (Ry)=  0.0100
                       cart. coord. in units 2pi/alat
        k(    1) = (   0.0000000   0.0000000   0.0000000), wk =   2.0000000

     Dense  grid:  2986080 G-vectors     FFT dimensions: ( 200, 180, 384)

     Smooth grid:   755503 G-vectors     FFT dimensions: ( 125, 120, 243)

     Estimated max dynamical RAM per process >       3.52 GB

     Estimated total dynamical RAM >      21.11 GB

     Initial potential from superposition of free atoms

     starting charge    1207.9915, renormalised to    1208.0000

     negative rho (up, down):  3.154E-03 0.000E+00
[psid01:222761] 5 more processes have sent help message help-mpi-btl-openib.txt / ib port not selected
[psid01:222761] Set MCA parameter "orte_base_help_aggregate" to 0 to see all help / error messages
[psid01:222761] 5 more processes have sent help message help-mpi-btl-openib.txt / error in device init
     Starting wfcs are  786 randomized atomic wfcs
     Checking if some PAW data can be deallocated... 

     total cpu time spent up to now is      155.1 secs

     Self-consistent Calculation

     iteration #  1     ecut=    50.00 Ry     beta= 0.70
     Davidson diagonalization with overlap
     ethr =  1.00E-02,  avg # of iterations =  9.0

     Threshold (ethr) on eigenvalues was too large:
     Diagonalizing with lowered threshold

     Davidson diagonalization with overlap
     ethr =  1.53E-04,  avg # of iterations = 10.0

     negative rho (up, down):  1.317E-03 0.000E+00

     total cpu time spent up to now is     1246.4 secs

     total energy              =  -27734.69852343 Ry
     estimated scf accuracy    <       1.91921193 Ry

     iteration #  2     ecut=    50.00 Ry     beta= 0.70
     Davidson diagonalization with overlap
     ethr =  1.59E-04,  avg # of iterations =  4.0

     negative rho (up, down):  2.323E-03 0.000E+00

     total cpu time spent up to now is     1905.7 secs

     total energy              =  -27734.96305734 Ry
     estimated scf accuracy    <       2.85108961 Ry

     iteration #  3     ecut=    50.00 Ry     beta= 0.70
     Davidson diagonalization with overlap
     ethr =  1.59E-04,  avg # of iterations =  5.0

     negative rho (up, down):  2.839E-03 0.000E+00

     total cpu time spent up to now is     2508.2 secs

     total energy              =  -27735.17063009 Ry
     estimated scf accuracy    <       5.20642846 Ry

     iteration #  4     ecut=    50.00 Ry     beta= 0.70
     Davidson diagonalization with overlap
     ethr =  1.59E-04,  avg # of iterations =  6.0

     negative rho (up, down):  2.802E-03 0.000E+00

     total cpu time spent up to now is     3006.4 secs

     total energy              =  -27735.51512367 Ry
     estimated scf accuracy    <       0.51660659 Ry

     iteration #  5     ecut=    50.00 Ry     beta= 0.70
     Davidson diagonalization with overlap
     ethr =  4.28E-05,  avg # of iterations =  5.0

     negative rho (up, down):  2.851E-03 0.000E+00

     total cpu time spent up to now is     3507.3 secs

     total energy              =  -27735.50275169 Ry
     estimated scf accuracy    <       0.82541122 Ry

     iteration #  6     ecut=    50.00 Ry     beta= 0.70
     Davidson diagonalization with overlap
     ethr =  4.28E-05,  avg # of iterations =  3.0

     negative rho (up, down):  2.868E-03 0.000E+00

     total cpu time spent up to now is     3982.9 secs

     total energy              =  -27735.56413518 Ry
     estimated scf accuracy    <       0.10367915 Ry

     iteration #  7     ecut=    50.00 Ry     beta= 0.70
     Davidson diagonalization with overlap
     ethr =  8.58E-06,  avg # of iterations =  6.0

     negative rho (up, down):  2.851E-03 0.000E+00

     total cpu time spent up to now is     4467.5 secs

     total energy              =  -27735.56493721 Ry
     estimated scf accuracy    <       0.23546114 Ry

     iteration #  8     ecut=    50.00 Ry     beta= 0.70
     Davidson diagonalization with overlap
     ethr =  8.58E-06,  avg # of iterations =  6.0

     negative rho (up, down):  2.833E-03 0.000E+00

     total cpu time spent up to now is     4936.3 secs

     total energy              =  -27735.57653885 Ry
     estimated scf accuracy    <       0.01325554 Ry

     iteration #  9     ecut=    50.00 Ry     beta= 0.70
     Davidson diagonalization with overlap
     c_bands:  5 eigenvalues not converged
     ethr =  1.10E-06,  avg # of iterations = 20.0

     negative rho (up, down):  2.836E-03 0.000E+00

     total cpu time spent up to now is     5432.4 secs

     total energy              =  -27735.57763821 Ry
     estimated scf accuracy    <       0.00128036 Ry

     iteration # 10     ecut=    50.00 Ry     beta= 0.70
     Davidson diagonalization with overlap
     ethr =  1.06E-07,  avg # of iterations = 13.0

     negative rho (up, down):  2.838E-03 0.000E+00

     total cpu time spent up to now is     5910.3 secs

     total energy              =  -27735.57771329 Ry
     estimated scf accuracy    <       0.00036185 Ry

     iteration # 11     ecut=    50.00 Ry     beta= 0.70
     Davidson diagonalization with overlap
     ethr =  3.00E-08,  avg # of iterations =  3.0

     negative rho (up, down):  2.839E-03 0.000E+00

     total cpu time spent up to now is     6375.8 secs

     total energy              =  -27735.57771546 Ry
     estimated scf accuracy    <       0.00081186 Ry

     iteration # 12     ecut=    50.00 Ry     beta= 0.70
     Davidson diagonalization with overlap
     ethr =  3.00E-08,  avg # of iterations =  2.0

     negative rho (up, down):  2.837E-03 0.000E+00

     total cpu time spent up to now is     6834.9 secs

     total energy              =  -27735.57779219 Ry
     estimated scf accuracy    <       0.00006920 Ry

     iteration # 13     ecut=    50.00 Ry     beta= 0.70
     Davidson diagonalization with overlap
     ethr =  5.73E-09,  avg # of iterations =  2.0

     negative rho (up, down):  2.837E-03 0.000E+00

     total cpu time spent up to now is     7300.1 secs

     total energy              =  -27735.57779905 Ry
     estimated scf accuracy    <       0.00000941 Ry

     iteration # 14     ecut=    50.00 Ry     beta= 0.70
     Davidson diagonalization with overlap
     ethr =  7.79E-10,  avg # of iterations =  2.0

     negative rho (up, down):  2.838E-03 0.000E+00

     total cpu time spent up to now is     7775.7 secs

     total energy              =  -27735.57780036 Ry
     estimated scf accuracy    <       0.00001070 Ry

     iteration # 15     ecut=    50.00 Ry     beta= 0.70
     Davidson diagonalization with overlap
     ethr =  7.79E-10,  avg # of iterations =  2.0

     negative rho (up, down):  2.838E-03 0.000E+00

     total cpu time spent up to now is     8232.0 secs

     total energy              =  -27735.57780056 Ry
     estimated scf accuracy    <       0.00000868 Ry

     iteration # 16     ecut=    50.00 Ry     beta= 0.70
     Davidson diagonalization with overlap
     ethr =  7.18E-10,  avg # of iterations =  2.0

     negative rho (up, down):  2.838E-03 0.000E+00

     total cpu time spent up to now is     8691.4 secs

     total energy              =  -27735.57780119 Ry
     estimated scf accuracy    <       0.00000122 Ry

     iteration # 17     ecut=    50.00 Ry     beta= 0.70
     Davidson diagonalization with overlap
     ethr =  1.01E-10,  avg # of iterations =  2.0

     negative rho (up, down):  2.838E-03 0.000E+00

     total cpu time spent up to now is     9152.0 secs

     total energy              =  -27735.57780091 Ry
     estimated scf accuracy    <       0.00000694 Ry

     iteration # 18     ecut=    50.00 Ry     beta= 0.70
     Davidson diagonalization with overlap
     ethr =  1.01E-10,  avg # of iterations =  2.0

     negative rho (up, down):  2.838E-03 0.000E+00

     total cpu time spent up to now is     9612.9 secs

     total energy              =  -27735.57780104 Ry
     estimated scf accuracy    <       0.00000602 Ry

     iteration # 19     ecut=    50.00 Ry     beta= 0.70
     Davidson diagonalization with overlap
     ethr =  1.01E-10,  avg # of iterations =  2.0

     negative rho (up, down):  2.837E-03 0.000E+00

     total cpu time spent up to now is    10075.0 secs

     End of self-consistent calculation

          k = 0.0000 0.0000 0.0000 ( 94390 PWs)   bands (ev):

  -128.2035-127.1443-127.1104-127.0909-127.0650-127.0525-127.0480-127.0336
  -127.0298-127.0288-127.0272-127.0269-127.0260-127.0250-127.0195-127.0183
  -127.0158-127.0133-127.0129-127.0127-127.0107-127.0097-127.0076-127.0059
  -127.0056-127.0043-127.0015-127.0012-127.0011-126.9987-126.9974-126.9970
  -126.9955-126.9925-126.9917-126.9915-126.9912-126.9895-126.9877-126.9871
  -126.9856-126.9847-126.9837-126.9818-126.9817-126.9800-126.9796-126.9783
  -126.9779-126.9770-126.9770-126.9764-126.9747-126.9705-126.9598-126.9592
  -126.9558-126.9544-126.9062-126.8974 -82.6493 -82.3134 -82.2772 -81.3253
   -81.2993 -81.2953 -81.2717 -81.2647 -81.2585 -81.2483 -81.2403 -81.2338
   -81.2285 -81.2209 -81.2195 -81.2146 -81.2040 -81.2039 -81.2029 -81.2027
   -81.2011 -81.1995 -81.1964 -81.1957 -81.1943 -81.1932 -81.1900 -81.1898
   -81.1886 -81.1881 -81.1871 -81.1863 -81.1846 -81.1845 -81.1835 -81.1832
   -81.1812 -81.1809 -81.1793 -81.1783 -81.1775 -81.1769 -81.1758 -81.1755
   -81.1753 -81.1752 -81.1737 -81.1733 -81.1733 -81.1727 -81.1710 -81.1710
   -81.1709 -81.1705 -81.1704 -81.1700 -81.1692 -81.1691 -81.1685 -81.1679
   -81.1675 -81.1674 -81.1671 -81.1663 -81.1653 -81.1642 -81.1639 -81.1635
   -81.1629 -81.1628 -81.1623 -81.1619 -81.1609 -81.1607 -81.1597 -81.1594
   -81.1589 -81.1574 -81.1573 -81.1572 -81.1568 -81.1561 -81.1560 -81.1560
   -81.1556 -81.1554 -81.1551 -81.1547 -81.1546 -81.1544 -81.1539 -81.1538
   -81.1534 -81.1529 -81.1527 -81.1525 -81.1521 -81.1517 -81.1511 -81.1508
   -81.1507 -81.1495 -81.1491 -81.1479 -81.1473 -81.1467 -81.1465 -81.1456
   -81.1455 -81.1443 -81.1441 -81.1439 -81.1438 -81.1430 -81.1424 -81.1421
   -81.1420 -81.1413 -81.1402 -81.1394 -81.1386 -81.1374 -81.1363 -81.1361
   -81.1354 -81.1353 -81.1350 -81.1335 -81.1333 -81.1330 -81.1322 -81.1320
   -81.1318 -81.1315 -81.1312 -81.1303 -81.1294 -81.1293 -81.1290 -81.1283
   -81.1283 -81.1266 -81.1256 -81.1252 -81.1247 -81.1239 -81.1228 -81.1220
   -81.1218 -81.1214 -81.1212 -81.1211 -81.1208 -81.1191 -81.1188 -81.1186
   -81.1175 -81.1160 -81.1153 -81.1150 -81.1145 -81.1133 -81.1122 -81.1115
   -81.1100 -81.1073 -81.1041 -81.1025 -81.1019 -81.1006 -81.0989 -81.0988
   -81.0973 -81.0945 -81.0734 -81.0612 -81.0587 -81.0482 -81.0449 -81.0416
   -26.6142 -14.9451 -13.7984 -11.1874 -10.0413  -9.4984  -9.4355  -9.3199
    -9.2359  -9.2174  -9.2074  -8.9557  -8.8662  -8.8171  -8.8122  -8.7917
    -8.7654  -8.7623  -8.7532  -8.7447  -8.7290  -8.7106  -8.7028  -8.6709
    -8.6498  -8.6062  -8.6002  -8.5951  -8.5901  -8.5889  -8.5880  -8.5807
    -8.5777  -8.5679  -8.5571  -8.5495  -8.5492  -8.5369  -8.5320  -8.5263
    -8.5227  -8.5128  -8.5097  -8.5091  -8.5051  -8.5008  -8.4995  -8.4974
    -8.4929  -8.4836  -8.4813  -8.4758  -8.4723  -8.4642  -8.4611  -8.4523
    -8.4408  -8.4315  -8.4220  -8.4182  -8.4129  -8.4095  -8.4028  -8.4015
    -8.4014  -8.3989  -8.3966  -8.3887  -8.3803  -8.3734  -8.3619  -8.3550
    -8.3526  -8.3503  -8.3436  -8.3414  -8.3384  -8.3232  -8.3180  -8.3167
    -8.3019  -8.2964  -8.2924  -8.2908  -8.2899  -8.2811  -8.2774  -8.2745
    -8.2663  -8.2644  -8.2617  -8.2575  -8.2538  -8.2481  -8.2450  -8.2364
    -8.2328  -8.2273  -8.2265  -8.2197  -8.2154  -8.2031  -8.1825  -8.1766
    -8.1695  -8.1604  -8.1569  -8.1535  -8.1522  -8.1511  -8.1472  -8.1444
    -8.1422  -8.1266  -8.1260  -8.1172  -8.1161  -8.1044  -8.1014  -8.0868
    -8.0783  -8.0721  -8.0684  -8.0652  -8.0503  -8.0468  -8.0431  -8.0375
    -8.0274  -8.0260  -8.0211  -8.0183  -8.0148  -8.0116  -8.0074  -8.0042
    -8.0030  -8.0003  -7.9956  -7.9929  -7.9917  -7.9900  -7.9884  -7.9871
    -7.9858  -7.9831  -7.9819  -7.9803  -7.9769  -7.9737  -7.9729  -7.9696
    -7.9689  -7.9633  -7.9583  -7.9450  -7.9360  -7.9331  -7.9310  -7.9241
    -7.9082  -7.9053  -7.9027  -7.8940  -7.8898  -7.8863  -7.8840  -7.8800
    -7.8710  -7.8684  -7.8661  -7.8649  -7.8645  -7.8623  -7.8544  -7.8529
    -7.8509  -7.8461  -7.8394  -7.8372  -7.8335  -7.8311  -7.8301  -7.8231
    -7.8199  -7.8159  -7.8135  -7.8060  -7.8045  -7.8014  -7.7936  -7.7877
    -7.7851  -7.7766  -7.7730  -7.7669  -7.7590  -7.7485  -7.7464  -7.7401
    -7.7272  -7.7224  -7.7215  -7.7160  -7.7105  -7.7049  -7.7009  -7.6984
    -7.6937  -7.6788  -7.6740  -7.6710  -7.6676  -7.6654  -7.6629  -7.6600
    -7.6585  -7.6563  -7.6558  -7.6531  -7.6525  -7.6508  -7.6494  -7.6483
    -7.6460  -7.6445  -7.6438  -7.6424  -7.6394  -7.6359  -7.6334  -7.6320
    -7.6276  -7.6237  -7.6228  -7.6152  -7.6133  -7.6099  -7.6054  -7.6036
    -7.6003  -7.5982  -7.5955  -7.5912  -7.5883  -7.5854  -7.5845  -7.5838
    -7.5811  -7.5792  -7.5780  -7.5742  -7.5732  -7.5707  -7.5670  -7.5556
    -7.5518  -7.5476  -7.5430  -7.5413  -7.5369  -7.5314  -7.5277  -7.5246
    -7.5243  -7.5136  -7.5096  -7.5092  -7.5062  -7.5056  -7.5034  -7.5027
    -7.4998  -7.4975  -7.4937  -7.4929  -7.4850  -7.4831  -7.4806  -7.4781
    -7.4767  -7.4750  -7.4703  -7.4670  -7.4654  -7.4588  -7.4566  -7.4512
    -7.4418  -7.4392  -7.4380  -7.4352  -7.4330  -7.4300  -7.4291  -7.4276
    -7.4250  -7.4161  -7.4133  -7.4110  -7.4083  -7.4072  -7.4029  -7.4008
    -7.3966  -7.3939  -7.3911  -7.3704  -7.3387  -7.3148  -7.2958  -6.8513
    -6.6742  -6.4556  -6.3636  -5.8394  -5.6910  -5.6494  -5.6044  -5.5884
    -5.5675  -5.5056  -5.1249  -5.1228  -5.1071  -5.0947  -5.0816  -5.0672
    -4.9293  -4.8343  -4.2826  -4.2807  -4.2231  -3.9688  -3.1720  -3.1013
    -3.0716  -3.0519  -3.0289  -3.0162  -2.8601  -2.6366  -2.6137  -2.4814
    -2.3677  -2.3277  -2.3208  -2.3031  -2.1770  -1.8781  -1.8774  -1.7830
    -1.7807  -1.7050  -1.6849  -1.6529  -1.4783  -1.3986  -1.3764  -1.3313
    -1.2619  -1.0940  -1.0648  -0.7560  -0.7499  -0.7377  -0.6767  -0.3153
    -0.2923  -0.2638  -0.2418   0.2791   0.3001   0.3507   0.4327   0.4582
     0.5796   0.6936   0.6979   0.7338   0.9555   1.2556   1.2930   1.2992
     1.3766   1.4011   1.4150   1.4338   1.4712   1.4819   1.5045   1.5617
     1.6792   1.7583   1.7705   1.8076   1.8156   1.8571   2.0980   2.1846
     2.2304   2.2693   2.2956   2.3468   2.6220   2.6290   2.6425   2.7237
     2.8406   2.8906   2.9355   2.9863   3.0028   3.0950   3.1273   3.1530
     3.1636   3.1785   3.3502   3.3754   3.5508   3.6544   3.7387   3.8123
     3.8329   3.9309   3.9710   3.9855   4.0035   4.0373   4.1621   4.1923
     4.2129   4.2552   4.2661   4.2782   4.2892   4.3440   4.3791   4.3952
     4.4223   4.4332   4.4520   4.4606   4.4794   4.5319   4.5699   4.6405
     4.6421   4.6549   4.6739   4.7800   4.8270   4.8545   4.8808   4.8967
     4.9309   4.9381   4.9655   4.9820   5.0598   5.0663   5.0901   5.0966
     5.1177   5.1261   5.1828   5.1934   5.2431   5.2660   5.3127   5.3308
     5.3326   5.3461   5.3924   5.5423   5.5746   5.6010   5.6167   5.6298
     5.6400   5.6564   5.6911   5.6976   5.7183

     the Fermi energy is    -0.7984 ev

!    total energy              =  -27735.57780127 Ry
     estimated scf accuracy    <       0.00000016 Ry
     smearing contrib. (-TS)   =      -0.01741899 Ry
     internal energy E=F+TS    =  -27735.56038228 Ry

     The total energy is F=E-TS. E is the sum of the following terms:
     one-electron contribution = -163227.41323807 Ry
     hartree contribution      =   81439.15412729 Ry
     xc contribution           =   -2537.66859757 Ry
     ewald contribution        =   56599.87520029 Ry
     one-center paw contrib.   =      -9.50787423 Ry

     convergence has been achieved in  19 iterations

     negative rho (up, down):  2.837E-03 0.000E+00

     Forces acting on atoms (cartesian axes, Ry/au):

     atom    1 type  1   force =     0.00012342    0.00072318   -0.00918485
     atom    2 type  1   force =    -0.00089538   -0.00044521   -0.01072221
     atom    3 type  1   force =    -0.00073610    0.00041067   -0.01028595
     atom    4 type  1   force =    -0.00059325   -0.00145757   -0.00942774
     atom    5 type  1   force =     0.00233474    0.00037122   -0.00866086
     atom    6 type  1   force =    -0.00032635    0.00192161   -0.01080785
     atom    7 type  1   force =    -0.00120568    0.00791775   -0.00811635
     atom    8 type  1   force =    -0.00150895   -0.00510482   -0.01067000
     atom    9 type  1   force =    -0.00008304   -0.00286645   -0.01178458
     atom   10 type  1   force =    -0.00063078   -0.00017327   -0.01007730
     atom   11 type  1   force =    -0.00062521   -0.00040805   -0.00956033
     atom   12 type  1   force =    -0.00060481   -0.00102773   -0.01011158
     atom   13 type  1   force =    -0.00101013    0.00049591   -0.01027464
     atom   14 type  1   force =     0.00026661    0.00066176   -0.01020740
     atom   15 type  1   force =    -0.00126789    0.00026032   -0.01089608
     atom   16 type  1   force =     0.00009548    0.00032067    0.03166896
     atom   17 type  1   force =     0.00088319   -0.00001506    0.03214540
     atom   18 type  1   force =    -0.00085052   -0.00023200    0.03139056
     atom   19 type  1   force =     0.00030581   -0.00019250    0.03199707
     atom   20 type  1   force =     0.00000465    0.00002765    0.03136995
     atom   21 type  1   force =     0.00014694   -0.00243677    0.03334195
     atom   22 type  1   force =    -0.00141154   -0.01750094    0.02268607
     atom   23 type  1   force =    -0.19517357   -0.14015224   -1.05761078
     atom   24 type  1   force =    -0.00211636    0.03006649    0.01576158
     atom   25 type  1   force =    -0.00000361    0.00582109    0.03227975
     atom   26 type  1   force =     0.00021425    0.00087919    0.03252219
     atom   27 type  1   force =     0.00035984    0.00019263    0.03056226
     atom   28 type  1   force =     0.00093408    0.00003476    0.03185198
     atom   29 type  1   force =     0.00028534   -0.00031735    0.03093688
     atom   30 type  1   force =    -0.00020756   -0.00070584    0.03173204
     atom   31 type  1   force =    -0.00086286   -0.00062712   -0.03179928
     atom   32 type  1   force =    -0.00213014   -0.00070013   -0.03199501
     atom   33 type  1   force =     0.00219429    0.00063171   -0.03428154
     atom   34 type  1   force =    -0.00105280   -0.00060431   -0.03310706
     atom   35 type  1   force =    -0.00075703    0.00021607   -0.03105437
     atom   36 type  1   force =     0.00000797    0.00028929   -0.03004591
     atom   37 type  1   force =     0.00093595    0.00126782   -0.03208310
     atom   38 type  1   force =     0.00065219   -0.00028561   -0.03139217
     atom   39 type  1   force =     0.00040093   -0.00178451   -0.03196897
     atom   40 type  1   force =     0.00002282    0.00006911   -0.02995930
     atom   41 type  1   force =     0.00056380    0.00055001   -0.03226281
     atom   42 type  1   force =     0.00107388    0.00047173   -0.03401567
     atom   43 type  1   force =    -0.00032713   -0.00160457   -0.03255109
     atom   44 type  1   force =     0.00129283    0.00185230   -0.03454965
     atom   45 type  1   force =     0.00022177   -0.00156399   -0.03180417
     atom   46 type  1   force =     0.00249164    0.00017477    0.01226574
     atom   47 type  1   force =     0.00121737    0.00035213    0.01094149
     atom   48 type  1   force =    -0.01289011   -0.00581916    0.00787911
     atom   49 type  1   force =    -0.02019734    0.00619446    0.00643776
     atom   50 type  1   force =     0.00084520   -0.00128307    0.01162734
     atom   51 type  1   force =    -0.00184965    0.00026493    0.01103379
     atom   52 type  1   force =    -0.00106711   -0.00049584    0.01127635
     atom   53 type  1   force =     0.03419641   -0.01780844    0.00252401
     atom   54 type  1   force =     0.05465545    0.02534233   -0.00381423
     atom   55 type  1   force =    -0.00084616   -0.00066193    0.01105255
     atom   56 type  1   force =    -0.00011933    0.00055180    0.01088663
     atom   57 type  1   force =     0.00012965   -0.00032651    0.00985912
     atom   58 type  1   force =     0.00019025    0.00037232    0.00994840
     atom   59 type  1   force =     0.00018967   -0.00032480    0.00996029
     atom   60 type  1   force =     0.00039827   -0.00051013    0.00916344
     atom   61 type  2   force =     0.16707782    0.13221635    1.03548949
     atom   62 type  3   force =    -0.07347761   -0.02273566    0.07100797
     atom   63 type  3   force =     0.05011549    0.00924956    0.03348269

     Total force =     1.532056     Total SCF correction =     0.004500

     BFGS Geometry Optimization
     Energy error            =      0.0E+00 Ry
     Gradient error          =      1.1E+00 Ry/Bohr

     number of scf cycles    =   1
     number of bfgs steps    =   0

     energy             new  =  -27735.5778012727 Ry

     new trust radius        =       0.5000000000 bohr
     new conv_thr            =       0.0000010000 Ry


ATOMIC_POSITIONS (angstrom)
Zn               1.2183151083        1.3073474250        0.7524672755
Zn               1.2180665651        3.9214223880        0.7520922217
Zn               1.2181054216        6.5359911874        0.7521986510
Zn               1.2181402715        9.1498954128        0.7524080204
Zn               1.2188545811       11.7647015613        0.7525951069
Zn               6.0913763842        1.3076397934        0.7520713306
Zn               6.0911618640        3.9234626045        0.7527279444
Zn               6.0910878775        6.5346456342        0.7521049600
Zn               6.0914357407        9.1495517051        0.7518330481
Zn               6.0913021150       11.7645687290        0.7522495540
Zn              10.9644594747        1.3070714530        0.7523756738
Zn              10.9644644521        3.9212802765        0.7522411918
Zn              10.9643655695        6.5360119823        0.7522014102
Zn              10.9646770413        9.1504124422        0.7522178137
Zn              10.9643026865       11.7646745075        0.7520498043
Zn               1.2183082935        0.0000702313        3.0265349229
Zn               1.2185004624        2.6143483259        3.0266511547
Zn               1.2180775078        5.2286554016        3.0264670033
Zn               1.2183596039        7.8430250374        3.0266149673
Zn               1.2182861347       10.4574387465        3.0264619749
Zn               6.0914918475       -0.0006024715        3.0269430626
Zn               6.0911116421        2.6100824924        3.0243434670
Zn               6.0438416849        5.1945206233        2.7607955180
Zn               6.0909396949        7.8504069856        3.0226541758
Zn               6.0914551195       10.4588521067        3.0266839308
Zn              10.9646642690        0.0002064853        3.0267430741
Zn              10.9646997866        2.6143989934        3.0262649339
Zn              10.9648398767        5.2287204790        3.0265795708
Zn              10.9646816117        7.8429945791        3.0263563237
Zn              10.9645613632       10.4572598047        3.0265503107
Zn               3.6546604967       -0.0001429923        1.5016342854
Zn               3.6543513343        2.6141991962        1.5015865350
Zn               3.6554063163        5.2288841123        1.5010287168
Zn               3.6546141606        7.8429425731        1.5013152416
Zn               3.6546863154       10.4575027126        1.5018160119
Zn               8.5280279442        0.0000805745        1.5020620357
Zn               8.5282543325        2.6146792959        1.5015650458
Zn               8.5281851073        5.2286603231        1.5017336031
Zn               8.5281238102        7.8426546540        1.5015928879
Zn               8.5280315660       10.4574668605        1.5020831637
Zn              13.4013345447        0.0001441793        1.5015212032
Zn              13.4014589825        2.6144850836        1.5010935769
Zn              13.4011171936        5.2283385518        1.5014508750
Zn              13.4015123984        7.8435418840        1.5009633090
Zn              13.4012511026       10.4570684499        1.5016330918
Zn               3.6554788565       -1.3071263642        3.7764853358
Zn               3.6551679890        1.3072769043        3.7761622736
Zn               3.6517263446        3.9201313646        3.7754151795
Zn               3.6499436804        6.5374221920        3.7750635490
Zn               3.6550771952        9.1499579826        3.7763295928
Zn               8.5275747604       -1.3071043680        3.7761847897
Zn               8.5277656702        1.3070700350        3.7762439644
Zn               8.5363685164        3.9172064745        3.7741087537
Zn               8.5413596800        6.5420934862        3.7725624848
Zn               8.5278195722        9.1501095160        3.7761893680
Zn              13.4011678892       -1.3070343840        3.7761488884
Zn              13.4012286282        1.3071113455        3.7758982187
Zn              13.4012434123        3.9216418319        3.7759200009
Zn              13.4012432722        6.5358317611        3.7759229014
Zn              13.4012941609        9.1501465485        3.7757285031
O                6.4211111095        5.4550223447        4.6382347990
H                5.5714974887        5.0061744355        4.7858510197
H                7.0189051171        5.4717965123        5.1332383976



     Writing config-only to output data dir /home/ys/Research/PSID_server_room/qe/zinc_surface_water.relax/Zn_100_water/pwscf.save/ :
     XML data file
     NEW-OLD atomic charge density approx. for the potential

     negative rho (up, down):  3.035E-03 0.000E+00

     total cpu time spent up to now is    10301.1 secs

     Self-consistent Calculation

     iteration #  1     ecut=    50.00 Ry     beta= 0.70
     Davidson diagonalization with overlap
     ethr =  1.00E-06,  avg # of iterations = 15.0

     negative rho (up, down):  2.552E-03 0.000E+00

     total cpu time spent up to now is    11585.7 secs

     total energy              =  -27735.75029234 Ry
     estimated scf accuracy    <       0.17537459 Ry

     iteration #  2     ecut=    50.00 Ry     beta= 0.70
     Davidson diagonalization with overlap
     c_bands:  1 eigenvalues not converged
     ethr =  1.45E-05,  avg # of iterations = 20.0

     negative rho (up, down):  2.619E-03 0.000E+00

     total cpu time spent up to now is    12187.5 secs

     total energy              =  -27735.50644782 Ry
     estimated scf accuracy    <       3.36737061 Ry

     iteration #  3     ecut=    50.00 Ry     beta= 0.70
     Davidson diagonalization with overlap
     ethr =  1.45E-05,  avg # of iterations = 20.0

     negative rho (up, down):  2.611E-03 0.000E+00

     total cpu time spent up to now is    12814.4 secs

     total energy              =  -27735.74284492 Ry
     estimated scf accuracy    <       1.71376763 Ry

     iteration #  4     ecut=    50.00 Ry     beta= 0.70
     Davidson diagonalization with overlap
     ethr =  1.45E-05,  avg # of iterations =  8.0

     negative rho (up, down):  2.601E-03 0.000E+00

     total cpu time spent up to now is    13329.3 secs

     total energy              =  -27735.83501329 Ry
     estimated scf accuracy    <       0.20630799 Ry

     iteration #  5     ecut=    50.00 Ry     beta= 0.70
     Davidson diagonalization with overlap
     ethr =  1.45E-05,  avg # of iterations =  3.0

     negative rho (up, down):  2.588E-03 0.000E+00

     total cpu time spent up to now is    13808.8 secs

     total energy              =  -27735.85307425 Ry
     estimated scf accuracy    <       0.04755651 Ry

     iteration #  6     ecut=    50.00 Ry     beta= 0.70
     Davidson diagonalization with overlap
     ethr =  3.94E-06,  avg # of iterations =  3.0

     negative rho (up, down):  2.585E-03 0.000E+00

     total cpu time spent up to now is    14292.0 secs

     total energy              =  -27735.85328464 Ry
     estimated scf accuracy    <       0.05574470 Ry

     iteration #  7     ecut=    50.00 Ry     beta= 0.70
     Davidson diagonalization with overlap
     ethr =  3.94E-06,  avg # of iterations =  6.0

     negative rho (up, down):  2.581E-03 0.000E+00

     total cpu time spent up to now is    14769.2 secs

     total energy              =  -27735.85497209 Ry
     estimated scf accuracy    <       0.07824409 Ry

     iteration #  8     ecut=    50.00 Ry     beta= 0.70
     Davidson diagonalization with overlap
     ethr =  3.94E-06,  avg # of iterations =  6.0

     negative rho (up, down):  2.580E-03 0.000E+00

     total cpu time spent up to now is    15230.0 secs

     total energy              =  -27735.85896744 Ry
     estimated scf accuracy    <       0.00219121 Ry

     iteration #  9     ecut=    50.00 Ry     beta= 0.70
     Davidson diagonalization with overlap
     ethr =  1.81E-07,  avg # of iterations =  3.0

     negative rho (up, down):  2.579E-03 0.000E+00

     total cpu time spent up to now is    15695.9 secs

     total energy              =  -27735.85912311 Ry
     estimated scf accuracy    <       0.00164228 Ry

     iteration # 10     ecut=    50.00 Ry     beta= 0.70
     Davidson diagonalization with overlap
     ethr =  1.36E-07,  avg # of iterations =  2.0

     negative rho (up, down):  2.580E-03 0.000E+00

     total cpu time spent up to now is    16155.6 secs

     total energy              =  -27735.85927962 Ry
     estimated scf accuracy    <       0.00065796 Ry

     iteration # 11     ecut=    50.00 Ry     beta= 0.70
     Davidson diagonalization with overlap
     ethr =  5.45E-08,  avg # of iterations =  2.0

     negative rho (up, down):  2.580E-03 0.000E+00

     total cpu time spent up to now is    16614.3 secs

     total energy              =  -27735.85934330 Ry
     estimated scf accuracy    <       0.00005199 Ry

     iteration # 12     ecut=    50.00 Ry     beta= 0.70
     Davidson diagonalization with overlap
     ethr =  4.30E-09,  avg # of iterations =  4.0

     negative rho (up, down):  2.580E-03 0.000E+00

     total cpu time spent up to now is    17130.2 secs

     total energy              =  -27735.85934046 Ry
     estimated scf accuracy    <       0.00009052 Ry

     iteration # 13     ecut=    50.00 Ry     beta= 0.70
     Davidson diagonalization with overlap
     ethr =  4.30E-09,  avg # of iterations =  3.0

     negative rho (up, down):  2.579E-03 0.000E+00

     total cpu time spent up to now is    17597.0 secs

     total energy              =  -27735.85934637 Ry
     estimated scf accuracy    <       0.00021704 Ry

     iteration # 14     ecut=    50.00 Ry     beta= 0.70
     Davidson diagonalization with overlap
     ethr =  4.30E-09,  avg # of iterations =  2.0

     negative rho (up, down):  2.579E-03 0.000E+00

     total cpu time spent up to now is    18055.8 secs

     total energy              =  -27735.85935757 Ry
     estimated scf accuracy    <       0.00000453 Ry

     iteration # 15     ecut=    50.00 Ry     beta= 0.70
     Davidson diagonalization with overlap
     ethr =  3.75E-10,  avg # of iterations =  2.0

     negative rho (up, down):  2.580E-03 0.000E+00

     total cpu time spent up to now is    18517.3 secs

     total energy              =  -27735.85935797 Ry
     estimated scf accuracy    <       0.00000130 Ry

     iteration # 16     ecut=    50.00 Ry     beta= 0.70
     Davidson diagonalization with overlap
     ethr =  1.07E-10,  avg # of iterations =  2.0

     negative rho (up, down):  2.580E-03 0.000E+00

     total cpu time spent up to now is    18973.8 secs

     End of self-consistent calculation

          k = 0.0000 0.0000 0.0000 ( 94390 PWs)   bands (ev):

  -127.3569-127.1011-127.0617-127.0613-127.0508-127.0496-127.0455-127.0443
  -127.0438-127.0438-127.0433-127.0424-127.0385-127.0364-127.0354-127.0335
  -127.0333-127.0305-127.0297-127.0280-127.0250-127.0249-127.0248-127.0236
  -127.0181-127.0172-127.0152-127.0149-127.0143-127.0138-127.0129-127.0121
  -127.0108-127.0106-127.0104-127.0100-127.0091-127.0067-127.0045-127.0042
  -127.0022-126.9980-126.9976-126.9967-126.9964-126.9953-126.9950-126.9929
  -126.9919-126.9912-126.9912-126.9903-126.9887-126.9860-126.9845-126.9805
  -126.9777-126.9764-126.9751-126.9612 -81.5468 -81.5170 -81.5013 -81.2825
   -81.2539 -81.2387 -81.2330 -81.2298 -81.2277 -81.2201 -81.2189 -81.2181
   -81.2167 -81.2150 -81.2140 -81.2122 -81.2119 -81.2090 -81.2072 -81.2063
   -81.2053 -81.2034 -81.2033 -81.2021 -81.2011 -81.2004 -81.2002 -81.1996
   -81.1996 -81.1980 -81.1974 -81.1964 -81.1961 -81.1957 -81.1951 -81.1947
   -81.1946 -81.1938 -81.1925 -81.1924 -81.1915 -81.1914 -81.1897 -81.1895
   -81.1889 -81.1884 -81.1882 -81.1880 -81.1869 -81.1867 -81.1862 -81.1859
   -81.1857 -81.1855 -81.1853 -81.1841 -81.1837 -81.1831 -81.1826 -81.1824
   -81.1817 -81.1815 -81.1806 -81.1804 -81.1801 -81.1801 -81.1793 -81.1786
   -81.1785 -81.1775 -81.1772 -81.1771 -81.1764 -81.1762 -81.1758 -81.1754
   -81.1751 -81.1750 -81.1748 -81.1738 -81.1736 -81.1731 -81.1723 -81.1715
   -81.1713 -81.1706 -81.1703 -81.1703 -81.1695 -81.1691 -81.1684 -81.1682
   -81.1678 -81.1676 -81.1669 -81.1665 -81.1664 -81.1660 -81.1656 -81.1652
   -81.1651 -81.1645 -81.1637 -81.1622 -81.1620 -81.1607 -81.1601 -81.1597
   -81.1595 -81.1591 -81.1591 -81.1583 -81.1583 -81.1577 -81.1573 -81.1568
   -81.1565 -81.1560 -81.1553 -81.1551 -81.1546 -81.1542 -81.1536 -81.1534
   -81.1515 -81.1513 -81.1505 -81.1505 -81.1502 -81.1499 -81.1499 -81.1496
   -81.1494 -81.1490 -81.1489 -81.1477 -81.1472 -81.1464 -81.1456 -81.1453
   -81.1452 -81.1451 -81.1432 -81.1430 -81.1424 -81.1423 -81.1418 -81.1388
   -81.1384 -81.1372 -81.1366 -81.1365 -81.1363 -81.1361 -81.1357 -81.1352
   -81.1345 -81.1336 -81.1335 -81.1321 -81.1311 -81.1297 -81.1288 -81.1287
   -81.1280 -81.1272 -81.1268 -81.1262 -81.1258 -81.1238 -81.1221 -81.1220
   -81.1214 -81.1205 -81.1195 -81.1193 -81.1180 -81.1159 -81.1055 -81.1001
   -25.4138 -14.3828 -10.1982  -9.8828  -9.4348  -9.3926  -9.2215  -9.1912
    -8.9608  -8.8733  -8.8559  -8.8332  -8.8165  -8.8142  -8.8061  -8.7843
    -8.7712  -8.7629  -8.7480  -8.7257  -8.7178  -8.7079  -8.6845  -8.6639
    -8.6389  -8.6087  -8.6083  -8.6018  -8.5991  -8.5968  -8.5914  -8.5860
    -8.5713  -8.5645  -8.5604  -8.5551  -8.5506  -8.5409  -8.5360  -8.5306
    -8.5259  -8.5191  -8.5156  -8.5113  -8.5108  -8.5067  -8.5059  -8.4993
    -8.4940  -8.4875  -8.4844  -8.4812  -8.4719  -8.4599  -8.4468  -8.4363
    -8.4340  -8.4327  -8.4297  -8.4203  -8.4170  -8.4134  -8.4105  -8.4086
    -8.4074  -8.4045  -8.3988  -8.3947  -8.3856  -8.3714  -8.3598  -8.3569
    -8.3555  -8.3539  -8.3531  -8.3488  -8.3464  -8.3340  -8.3225  -8.3073
    -8.3051  -8.3034  -8.3022  -8.2960  -8.2864  -8.2854  -8.2809  -8.2794
    -8.2768  -8.2757  -8.2685  -8.2619  -8.2576  -8.2549  -8.2506  -8.2467
    -8.2431  -8.2368  -8.2342  -8.2283  -8.2098  -8.1973  -8.1879  -8.1860
    -8.1784  -8.1761  -8.1693  -8.1658  -8.1643  -8.1620  -8.1598  -8.1573
    -8.1512  -8.1426  -8.1378  -8.1295  -8.1191  -8.1144  -8.0956  -8.0893
    -8.0882  -8.0700  -8.0663  -8.0614  -8.0544  -8.0525  -8.0496  -8.0452
    -8.0344  -8.0329  -8.0306  -8.0246  -8.0237  -8.0189  -8.0169  -8.0128
    -8.0118  -8.0086  -8.0061  -8.0046  -8.0023  -8.0000  -7.9997  -7.9975
    -7.9959  -7.9937  -7.9932  -7.9928  -7.9897  -7.9896  -7.9869  -7.9851
    -7.9829  -7.9802  -7.9729  -7.9584  -7.9476  -7.9396  -7.9278  -7.9158
    -7.9149  -7.9080  -7.9040  -7.9006  -7.8949  -7.8927  -7.8887  -7.8868
    -7.8840  -7.8804  -7.8795  -7.8763  -7.8750  -7.8709  -7.8653  -7.8617
    -7.8594  -7.8576  -7.8536  -7.8502  -7.8482  -7.8435  -7.8398  -7.8374
    -7.8268  -7.8254  -7.8230  -7.8182  -7.8147  -7.8099  -7.8034  -7.7980
    -7.7934  -7.7926  -7.7799  -7.7668  -7.7624  -7.7608  -7.7574  -7.7511
    -7.7380  -7.7324  -7.7264  -7.7242  -7.7211  -7.7124  -7.7110  -7.7047
    -7.6986  -7.6902  -7.6854  -7.6850  -7.6807  -7.6776  -7.6749  -7.6741
    -7.6728  -7.6705  -7.6684  -7.6674  -7.6665  -7.6654  -7.6645  -7.6629
    -7.6621  -7.6606  -7.6587  -7.6573  -7.6563  -7.6541  -7.6493  -7.6469
    -7.6399  -7.6379  -7.6341  -7.6320  -7.6306  -7.6235  -7.6152  -7.6148
    -7.6129  -7.6110  -7.6084  -7.6062  -7.6050  -7.6013  -7.6007  -7.5997
    -7.5968  -7.5957  -7.5933  -7.5918  -7.5906  -7.5818  -7.5757  -7.5673
    -7.5628  -7.5602  -7.5564  -7.5531  -7.5489  -7.5427  -7.5407  -7.5371
    -7.5342  -7.5281  -7.5262  -7.5244  -7.5234  -7.5218  -7.5185  -7.5168
    -7.5160  -7.5151  -7.5094  -7.5030  -7.5020  -7.5010  -7.4950  -7.4926
    -7.4915  -7.4867  -7.4860  -7.4852  -7.4814  -7.4738  -7.4680  -7.4669
    -7.4539  -7.4519  -7.4501  -7.4488  -7.4484  -7.4465  -7.4461  -7.4445
    -7.4443  -7.4433  -7.4365  -7.4315  -7.4301  -7.4251  -7.4205  -7.4177
    -7.4166  -7.4156  -7.4026  -7.3780  -7.3496  -7.3273  -7.3189  -6.9976
    -6.6315  -6.4842  -6.3823  -5.8731  -5.7116  -5.6776  -5.6285  -5.6053
    -5.5859  -5.5411  -5.1510  -5.1444  -5.1379  -5.1266  -5.0906  -5.0824
    -4.9869  -4.8822  -4.3168  -4.3145  -4.2376  -4.0341  -3.1949  -3.1457
    -3.0878  -3.0707  -3.0493  -3.0236  -2.8938  -2.6525  -2.6281  -2.5015
    -2.3881  -2.3482  -2.3382  -2.3272  -2.2255  -1.8983  -1.8903  -1.8176
    -1.8148  -1.7324  -1.6983  -1.6706  -1.5472  -1.3908  -1.3772  -1.3425
    -1.2914  -1.0990  -1.0926  -0.7827  -0.7650  -0.7452  -0.7240  -0.3116
    -0.2952  -0.2725  -0.2295   0.2636   0.2779   0.3738   0.4046   0.4410
     0.5956   0.6702   0.6768   0.7249   0.9477   1.2632   1.2801   1.3053
     1.3838   1.4068   1.4218   1.4233   1.4447   1.4632   1.4755   1.5506
     1.6633   1.7485   1.7601   1.7802   1.8042   1.8682   2.1473   2.1758
     2.2253   2.2414   2.2945   2.3107   2.6116   2.6298   2.6562   2.7235
     2.8680   2.8988   2.9745   2.9848   3.0065   3.1171   3.1467   3.1504
     3.1562   3.1629   3.2956   3.3748   3.5656   3.7315   3.7579   3.8715
     3.9013   3.9485   3.9617   3.9884   3.9928   4.1298   4.1930   4.2122
     4.2259   4.2629   4.2700   4.2807   4.3112   4.3521   4.3721   4.3962
     4.4211   4.4342   4.4528   4.4573   4.4659   4.5245   4.6168   4.6441
     4.6481   4.6575   4.7148   4.7912   4.8232   4.8761   4.8889   4.9014
     4.9107   4.9167   4.9677   4.9704   5.0397   5.0795   5.1031   5.1090
     5.1220   5.1270   5.1731   5.2439   5.2636   5.2812   5.3316   5.3339
     5.3396   5.3845   5.4415   5.5596   5.5860   5.5914   5.6095   5.6259
     5.6329   5.6514   5.6853   5.6958   5.7304

     the Fermi energy is    -0.8205 ev

!    total energy              =  -27735.85935762 Ry
     estimated scf accuracy    <       0.00000065 Ry
     smearing contrib. (-TS)   =      -0.01775548 Ry
     internal energy E=F+TS    =  -27735.84160214 Ry

     The total energy is F=E-TS. E is the sum of the following terms:
     one-electron contribution = -163053.40794302 Ry
     hartree contribution      =   81352.42536285 Ry
     xc contribution           =   -2537.56026238 Ry
     ewald contribution        =   56512.19886434 Ry
     one-center paw contrib.   =      -9.49762393 Ry

     convergence has been achieved in  16 iterations

     negative rho (up, down):  2.580E-03 0.000E+00

     Forces acting on atoms (cartesian axes, Ry/au):

     atom    1 type  1   force =     0.00009430    0.00079349   -0.00848327
     atom    2 type  1   force =    -0.00046982   -0.00022131   -0.01005587
     atom    3 type  1   force =    -0.00024844   -0.00035972   -0.00998839
     atom    4 type  1   force =    -0.00089215   -0.00138804   -0.00870301
     atom    5 type  1   force =     0.00189911    0.00092753   -0.00938403
     atom    6 type  1   force =    -0.00091006    0.00134169   -0.00913081
     atom    7 type  1   force =     0.00069754   -0.01441722   -0.03234617
     atom    8 type  1   force =     0.00024486    0.01393079   -0.02588161
     atom    9 type  1   force =    -0.00033954   -0.00229545   -0.01101563
     atom   10 type  1   force =    -0.00096641   -0.00036510   -0.00763525
     atom   11 type  1   force =    -0.00008969   -0.00005684   -0.00976734
     atom   12 type  1   force =    -0.00087302   -0.00098602   -0.00994594
     atom   13 type  1   force =    -0.00104547   -0.00001669   -0.01024959
     atom   14 type  1   force =     0.00035033    0.00024056   -0.01046552
     atom   15 type  1   force =     0.00001202    0.00071516   -0.01152477
     atom   16 type  1   force =     0.00016560    0.00081444    0.03156358
     atom   17 type  1   force =     0.00098780   -0.00054478    0.03040227
     atom   18 type  1   force =    -0.00005864   -0.00063606    0.03001890
     atom   19 type  1   force =     0.00044722    0.00022704    0.03071600
     atom   20 type  1   force =    -0.00001289    0.00015651    0.03109950
     atom   21 type  1   force =    -0.00070139   -0.00034227    0.03129902
     atom   22 type  1   force =    -0.00076827   -0.01088197    0.02598085
     atom   23 type  1   force =    -0.00039508   -0.00513780   -0.02859646
     atom   24 type  1   force =    -0.00129528    0.01263413    0.02056125
     atom   25 type  1   force =    -0.00047701    0.00540941    0.03040399
     atom   26 type  1   force =     0.00064721    0.00150944    0.03215497
     atom   27 type  1   force =     0.00094177    0.00011140    0.02940522
     atom   28 type  1   force =     0.00027928   -0.00045650    0.03107897
     atom   29 type  1   force =     0.00114211   -0.00025956    0.02980919
     atom   30 type  1   force =     0.00027187   -0.00083644    0.03138965
     atom   31 type  1   force =    -0.00038750    0.00040571   -0.02973017
     atom   32 type  1   force =    -0.00236206   -0.00110678   -0.03059873
     atom   33 type  1   force =    -0.00593869    0.00041925   -0.03449364
     atom   34 type  1   force =    -0.00101254   -0.00055569   -0.03178104
     atom   35 type  1   force =    -0.00035023    0.00024402   -0.02947747
     atom   36 type  1   force =    -0.00133883    0.00095251   -0.02879194
     atom   37 type  1   force =     0.00066958    0.00112656   -0.03158533
     atom   38 type  1   force =     0.00197979    0.00003407   -0.02919776
     atom   39 type  1   force =    -0.00062040   -0.00210797   -0.03176807
     atom   40 type  1   force =    -0.00133102   -0.00052662   -0.02904228
     atom   41 type  1   force =     0.00083472    0.00061426   -0.03050969
     atom   42 type  1   force =     0.00194289    0.00013127   -0.03287353
     atom   43 type  1   force =    -0.00001532   -0.00226739   -0.03172346
     atom   44 type  1   force =     0.00196614    0.00207480   -0.03368721
     atom   45 type  1   force =     0.00082516   -0.00086321   -0.02976223
     atom   46 type  1   force =     0.00254369    0.00052833    0.01021047
     atom   47 type  1   force =     0.00194024   -0.00000391    0.00898664
     atom   48 type  1   force =    -0.00776338   -0.00352307    0.00640143
     atom   49 type  1   force =    -0.01189041    0.00294836    0.00556328
     atom   50 type  1   force =     0.00102662   -0.00064110    0.00980267
     atom   51 type  1   force =    -0.00230344    0.00060011    0.01006716
     atom   52 type  1   force =    -0.00234831   -0.00078888    0.00981813
     atom   53 type  1   force =     0.02080008   -0.01078203    0.00006724
     atom   54 type  1   force =     0.03793565    0.01686717   -0.00845259
     atom   55 type  1   force =    -0.00184827    0.00009909    0.00985790
     atom   56 type  1   force =     0.00114189    0.00101170    0.01081604
     atom   57 type  1   force =     0.00076868   -0.00126440    0.00946991
     atom   58 type  1   force =     0.00050246    0.00057507    0.00886694
     atom   59 type  1   force =     0.00041429   -0.00072226    0.00926855
     atom   60 type  1   force =     0.00101610    0.00017013    0.00866869
     atom   61 type  2   force =    -0.58562993    0.02248949   -0.42867364
     atom   62 type  3   force =    -0.02917521   -0.01978810    0.06117548
     atom   63 type  3   force =     0.57936972   -0.00596027    0.52039854

     Total force =     1.083505     Total SCF correction =     0.009155
     Energy error            =      2.8E-01 Ry
     Gradient error          =      5.9E-01 Ry/Bohr

     number of scf cycles    =   2
     number of bfgs steps    =   1

     energy             old  =  -27735.5778012727 Ry
     energy             new  =  -27735.8593576231 Ry

     CASE: energy            _new < energy            _old

     new trust radius        =       0.6857165822 bohr
     new conv_thr            =       0.0000010000 Ry


ATOMIC_POSITIONS (angstrom)
Zn               1.2183847935        1.3078639232        0.7466232958
Zn               1.2176572219        3.9212243747        0.7452015306
Zn               1.2178307650        6.5359206870        0.7454349281
Zn               1.2176082673        9.1489492450        0.7464115622
Zn               1.2202245737       11.7652002472        0.7464628291
Zn               6.0908954810        1.3086679789        0.7455769829
Zn               6.0912078669        3.9187443019        0.7364071424
Zn               6.0908634391        6.5397688735        0.7381206464
Zn               6.0912648954        9.1478859440        0.7442760461
Zn               6.0907284562       11.7643664174        0.7465885445
Zn              10.9642806645        1.3069555141        0.7458719859
Zn              10.9639384777        3.9206098524        0.7455351692
Zn              10.9636723522        6.5361143804        0.7453229230
Zn              10.9648934045        9.1506670848        0.7452572810
Zn              10.9640271266       11.7650532753        0.7444610988
Zn               1.2184038007        0.0005069455        3.0477234575
Zn               1.2191396569        2.6141004024        3.0474238780
Zn               1.2178627102        5.2283184230        3.0469003393
Zn               1.2186281520        7.8430843148        3.0474956737
Zn               1.2182813771       10.4575151414        3.0473758920
Zn               6.0912095090       -0.0012961104        3.0483835421
Zn               6.0904539296        2.6013187976        3.0410350131
Zn               6.0004152668        5.1611572208        2.5135978955
Zn               6.0898891914        7.8627417754        3.0353780968
Zn               6.0912401591       10.4625706492        3.0474871955
Zn              10.9650023199        0.0010789919        3.0483861884
Zn              10.9652023448        2.6144916910        3.0462392045
Zn              10.9651722500        5.2285232289        3.0475910866
Zn              10.9652576082        7.8428077219        3.0465949752
Zn              10.9646374270       10.4567278628        3.0476747356
Zn               3.6542953200       -0.0000998092        1.4812400106
Zn               3.6528188319        2.6135471454        1.4807589333
Zn               3.6532262965        5.2292123250        1.4779457648
Zn               3.6539262729        7.8425591755        1.4797104037
Zn               3.6543613210       10.4576601475        1.4817002564
Zn               8.5274286214        0.0005723213        1.4824775259
Zn               8.5287623481        2.6154660197        1.4802749769
Zn               8.5292184826        5.2286123284        1.4816685719
Zn               8.5279341165        7.8413128168        1.4802460664
Zn               8.5274390433       10.4572457404        1.4824054493
Zn              13.4018342378        0.0005418371        1.4806742354
Zn              13.4025692338        2.6146485497        1.4787969095
Zn              13.4010378269        5.2269650125        1.4799950870
Zn              13.4026816058        7.8448838526        1.4781830002
Zn              13.4016707143       10.4563343310        1.4812233374
Zn               3.6571730116       -1.3068504374        3.7837874732
Zn               3.6563088494        1.3073531763        3.7826215077
Zn               3.6453845100        3.9172601488        3.7800351469
Zn               3.6401297278        6.5401185479        3.7789878247
Zn               3.6557254021        9.1493858303        3.7833071784
Zn               8.5261307297       -1.3067762343        3.7831495938
Zn               8.5264748991        1.3066059819        3.7831507097
Zn               8.5532846887        3.9084195057        3.7746982415
Zn               8.5705026849        6.5552819201        3.7679223670
Zn               8.5268022614        9.1500073270        3.7830643804
Zn              13.4016541173       -1.3064578926        3.7834173025
Zn              13.4016024668        1.3064713222        3.7823345781
Zn              13.4015111559        3.9219825202        3.7821054352
Zn              13.4014713036        6.5354355190        3.7822912794
Zn              13.4018386048        9.1501098868        3.7816509883
O                6.1952073552        5.4944175016        4.6752325202
H                5.5421167583        4.9922522292        4.8290514777
H                7.2901267122        5.4711701977        5.3742983266



     Writing config-only to output data dir /home/ys/Research/PSID_server_room/qe/zinc_surface_water.relax/Zn_100_water/pwscf.save/ :
     XML data file
     NEW-OLD atomic charge density approx. for the potential

     negative rho (up, down):  3.326E-03 0.000E+00

     total cpu time spent up to now is    19198.6 secs

     Self-consistent Calculation

     iteration #  1     ecut=    50.00 Ry     beta= 0.70
     Davidson diagonalization with overlap
     ethr =  1.00E-06,  avg # of iterations = 13.0

     negative rho (up, down):  2.503E-03 0.000E+00

     total cpu time spent up to now is    20603.4 secs

     total energy              =  -27735.84764341 Ry
     estimated scf accuracy    <       0.11560373 Ry

     iteration #  2     ecut=    50.00 Ry     beta= 0.70
     Davidson diagonalization with overlap
     ethr =  9.57E-06,  avg # of iterations = 10.0

     negative rho (up, down):  2.542E-03 0.000E+00

     total cpu time spent up to now is    21179.4 secs

     total energy              =  -27735.72073667 Ry
     estimated scf accuracy    <       1.52560222 Ry

     iteration #  3     ecut=    50.00 Ry     beta= 0.70
     Davidson diagonalization with overlap
     ethr =  9.57E-06,  avg # of iterations =  9.0

     negative rho (up, down):  2.569E-03 0.000E+00

     total cpu time spent up to now is    21726.7 secs

     total energy              =  -27735.81308360 Ry
     estimated scf accuracy    <       1.03348037 Ry

     iteration #  4     ecut=    50.00 Ry     beta= 0.70
     Davidson diagonalization with overlap
     ethr =  9.57E-06,  avg # of iterations =  8.0

     negative rho (up, down):  2.563E-03 0.000E+00

     total cpu time spent up to now is    22240.1 secs

     total energy              =  -27735.86036857 Ry
     estimated scf accuracy    <       0.32008294 Ry

     iteration #  5     ecut=    50.00 Ry     beta= 0.70
     Davidson diagonalization with overlap
     ethr =  9.57E-06,  avg # of iterations =  7.0

     negative rho (up, down):  2.564E-03 0.000E+00

     total cpu time spent up to now is    22742.0 secs

     total energy              =  -27735.88336251 Ry
     estimated scf accuracy    <       0.12355959 Ry

     iteration #  6     ecut=    50.00 Ry     beta= 0.70
     Davidson diagonalization with overlap
     ethr =  9.57E-06,  avg # of iterations =  3.0

     negative rho (up, down):  2.567E-03 0.000E+00

     total cpu time spent up to now is    23217.1 secs

     total energy              =  -27735.88870886 Ry
     estimated scf accuracy    <       0.11256708 Ry

     iteration #  7     ecut=    50.00 Ry     beta= 0.70
     Davidson diagonalization with overlap
     ethr =  9.32E-06,  avg # of iterations =  2.0

     negative rho (up, down):  2.563E-03 0.000E+00

     total cpu time spent up to now is    23675.0 secs

     total energy              =  -27735.89488796 Ry
     estimated scf accuracy    <       0.02131534 Ry

     iteration #  8     ecut=    50.00 Ry     beta= 0.70
     Davidson diagonalization with overlap
     ethr =  1.76E-06,  avg # of iterations =  2.0

     negative rho (up, down):  2.562E-03 0.000E+00

     total cpu time spent up to now is    24137.4 secs

     total energy              =  -27735.89623284 Ry
     estimated scf accuracy    <       0.00177473 Ry

     iteration #  9     ecut=    50.00 Ry     beta= 0.70
     Davidson diagonalization with overlap
     ethr =  1.47E-07,  avg # of iterations =  2.0

     negative rho (up, down):  2.562E-03 0.000E+00

     total cpu time spent up to now is    24598.8 secs

     total energy              =  -27735.89631143 Ry
     estimated scf accuracy    <       0.00228995 Ry

     iteration # 10     ecut=    50.00 Ry     beta= 0.70
     Davidson diagonalization with overlap
     ethr =  1.47E-07,  avg # of iterations =  2.0

     negative rho (up, down):  2.562E-03 0.000E+00

     total cpu time spent up to now is    25059.1 secs

     total energy              =  -27735.89652639 Ry
     estimated scf accuracy    <       0.00029912 Ry

     iteration # 11     ecut=    50.00 Ry     beta= 0.70
     Davidson diagonalization with overlap
     ethr =  2.48E-08,  avg # of iterations =  2.0

     negative rho (up, down):  2.562E-03 0.000E+00

     total cpu time spent up to now is    25525.0 secs

     total energy              =  -27735.89656464 Ry
     estimated scf accuracy    <       0.00004774 Ry

     iteration # 12     ecut=    50.00 Ry     beta= 0.70
     Davidson diagonalization with overlap
     ethr =  3.95E-09,  avg # of iterations =  2.0

     negative rho (up, down):  2.562E-03 0.000E+00

     total cpu time spent up to now is    26005.7 secs

     total energy              =  -27735.89656984 Ry
     estimated scf accuracy    <       0.00004251 Ry

     iteration # 13     ecut=    50.00 Ry     beta= 0.70
     Davidson diagonalization with overlap
     ethr =  3.52E-09,  avg # of iterations =  2.0

     negative rho (up, down):  2.562E-03 0.000E+00

     total cpu time spent up to now is    26470.5 secs

     total energy              =  -27735.89657462 Ry
     estimated scf accuracy    <       0.00002449 Ry

     iteration # 14     ecut=    50.00 Ry     beta= 0.70
     Davidson diagonalization with overlap
     ethr =  2.03E-09,  avg # of iterations =  1.0

     negative rho (up, down):  2.562E-03 0.000E+00

     total cpu time spent up to now is    26864.1 secs

     total energy              =  -27735.89657622 Ry
     estimated scf accuracy    <       0.00000787 Ry

     iteration # 15     ecut=    50.00 Ry     beta= 0.70
     Davidson diagonalization with overlap
     ethr =  6.52E-10,  avg # of iterations =  1.0

     negative rho (up, down):  2.562E-03 0.000E+00

     total cpu time spent up to now is    27258.8 secs

     End of self-consistent calculation

          k = 0.0000 0.0000 0.0000 ( 94390 PWs)   bands (ev):

  -127.4304-127.2181-127.1432-127.0760-127.0627-127.0627-127.0590-127.0575
  -127.0558-127.0542-127.0533-127.0533-127.0524-127.0494-127.0460-127.0453
  -127.0444-127.0440-127.0410-127.0402-127.0380-127.0374-127.0356-127.0321
  -127.0309-127.0306-127.0299-127.0298-127.0263-127.0227-127.0212-127.0204
  -127.0179-127.0170-127.0162-127.0159-127.0156-127.0145-127.0141-127.0072
  -127.0070-127.0067-127.0064-127.0061-127.0060-127.0054-127.0053-127.0051
  -127.0011-126.9967-126.9960-126.9951-126.9936-126.9932-126.9844-126.9778
  -126.9688-126.9623-126.9600-126.9594 -81.6278 -81.5942 -81.5660 -81.4047
   -81.3551 -81.3451 -81.3268 -81.2841 -81.2737 -81.2410 -81.2321 -81.2315
   -81.2311 -81.2265 -81.2257 -81.2252 -81.2234 -81.2224 -81.2212 -81.2211
   -81.2201 -81.2187 -81.2171 -81.2145 -81.2128 -81.2126 -81.2126 -81.2111
   -81.2110 -81.2104 -81.2093 -81.2087 -81.2086 -81.2083 -81.2080 -81.2078
   -81.2074 -81.2061 -81.2060 -81.2060 -81.2054 -81.2051 -81.2041 -81.2036
   -81.2031 -81.2017 -81.2017 -81.2002 -81.1998 -81.1997 -81.1991 -81.1983
   -81.1975 -81.1970 -81.1966 -81.1965 -81.1961 -81.1948 -81.1934 -81.1927
   -81.1922 -81.1920 -81.1919 -81.1909 -81.1905 -81.1903 -81.1899 -81.1898
   -81.1888 -81.1885 -81.1880 -81.1878 -81.1871 -81.1869 -81.1868 -81.1866
   -81.1865 -81.1856 -81.1852 -81.1838 -81.1835 -81.1832 -81.1820 -81.1819
   -81.1813 -81.1811 -81.1810 -81.1806 -81.1805 -81.1800 -81.1799 -81.1792
   -81.1791 -81.1784 -81.1770 -81.1769 -81.1760 -81.1756 -81.1746 -81.1745
   -81.1730 -81.1724 -81.1722 -81.1717 -81.1716 -81.1708 -81.1703 -81.1702
   -81.1700 -81.1699 -81.1694 -81.1690 -81.1685 -81.1681 -81.1676 -81.1661
   -81.1649 -81.1629 -81.1628 -81.1626 -81.1620 -81.1609 -81.1609 -81.1603
   -81.1591 -81.1590 -81.1586 -81.1582 -81.1582 -81.1574 -81.1569 -81.1556
   -81.1552 -81.1539 -81.1537 -81.1536 -81.1534 -81.1519 -81.1513 -81.1512
   -81.1510 -81.1508 -81.1503 -81.1493 -81.1485 -81.1481 -81.1466 -81.1454
   -81.1453 -81.1451 -81.1451 -81.1446 -81.1432 -81.1414 -81.1409 -81.1403
   -81.1383 -81.1368 -81.1355 -81.1353 -81.1348 -81.1342 -81.1325 -81.1323
   -81.1313 -81.1301 -81.1298 -81.1289 -81.1280 -81.1265 -81.1240 -81.1191
   -81.1129 -81.1119 -81.1063 -81.1056 -81.1038 -81.1029 -81.1011 -81.0992
   -22.7417 -10.6879 -10.0519  -9.5997  -9.4003  -9.3012  -9.1847  -9.1599
    -9.1257  -8.9822  -8.9498  -8.8496  -8.8175  -8.8081  -8.7741  -8.7679
    -8.7643  -8.7478  -8.7445  -8.7383  -8.7227  -8.7172  -8.7061  -8.6919
    -8.6297  -8.6032  -8.5981  -8.5944  -8.5898  -8.5873  -8.5827  -8.5773
    -8.5693  -8.5669  -8.5548  -8.5412  -8.5396  -8.5319  -8.5266  -8.5249
    -8.5126  -8.5079  -8.5035  -8.5013  -8.5009  -8.4994  -8.4934  -8.4891
    -8.4808  -8.4735  -8.4704  -8.4642  -8.4585  -8.4542  -8.4428  -8.4319
    -8.4249  -8.4155  -8.4140  -8.4115  -8.4110  -8.4102  -8.4064  -8.4047
    -8.4006  -8.4003  -8.3919  -8.3854  -8.3740  -8.3671  -8.3628  -8.3557
    -8.3523  -8.3501  -8.3487  -8.3453  -8.3236  -8.3204  -8.3161  -8.3119
    -8.3076  -8.3055  -8.2953  -8.2925  -8.2896  -8.2807  -8.2781  -8.2757
    -8.2732  -8.2705  -8.2677  -8.2549  -8.2501  -8.2488  -8.2432  -8.2408
    -8.2362  -8.2319  -8.2298  -8.2162  -8.2133  -8.2013  -8.1997  -8.1941
    -8.1922  -8.1816  -8.1810  -8.1788  -8.1728  -8.1718  -8.1696  -8.1668
    -8.1557  -8.1529  -8.1517  -8.1421  -8.1293  -8.1246  -8.1111  -8.1031
    -8.0879  -8.0830  -8.0764  -8.0752  -8.0721  -8.0597  -8.0564  -8.0508
    -8.0382  -8.0358  -8.0335  -8.0310  -8.0277  -8.0248  -8.0206  -8.0190
    -8.0166  -8.0132  -8.0113  -8.0092  -8.0084  -8.0050  -8.0026  -8.0009
    -8.0000  -7.9997  -7.9971  -7.9939  -7.9912  -7.9889  -7.9869  -7.9825
    -7.9764  -7.9727  -7.9640  -7.9587  -7.9552  -7.9356  -7.9269  -7.9242
    -7.9186  -7.9170  -7.9140  -7.9126  -7.9092  -7.9040  -7.9003  -7.8991
    -7.8891  -7.8881  -7.8816  -7.8773  -7.8745  -7.8719  -7.8686  -7.8650
    -7.8628  -7.8622  -7.8611  -7.8590  -7.8554  -7.8541  -7.8481  -7.8460
    -7.8404  -7.8324  -7.8287  -7.8283  -7.8227  -7.8213  -7.8140  -7.8068
    -7.8023  -7.7959  -7.7902  -7.7843  -7.7790  -7.7718  -7.7644  -7.7636
    -7.7531  -7.7459  -7.7410  -7.7314  -7.7298  -7.7229  -7.7218  -7.7183
    -7.7154  -7.7014  -7.6996  -7.6990  -7.6942  -7.6927  -7.6878  -7.6867
    -7.6856  -7.6842  -7.6822  -7.6810  -7.6808  -7.6791  -7.6786  -7.6773
    -7.6757  -7.6725  -7.6713  -7.6708  -7.6636  -7.6616  -7.6596  -7.6566
    -7.6535  -7.6528  -7.6483  -7.6429  -7.6408  -7.6402  -7.6355  -7.6263
    -7.6254  -7.6245  -7.6206  -7.6188  -7.6157  -7.6154  -7.6135  -7.6133
    -7.6092  -7.6072  -7.6049  -7.6020  -7.5999  -7.5938  -7.5883  -7.5751
    -7.5745  -7.5725  -7.5692  -7.5687  -7.5660  -7.5556  -7.5523  -7.5501
    -7.5483  -7.5474  -7.5410  -7.5375  -7.5355  -7.5328  -7.5315  -7.5298
    -7.5297  -7.5259  -7.5230  -7.5208  -7.5196  -7.5128  -7.5095  -7.5062
    -7.5051  -7.5045  -7.5018  -7.4982  -7.4936  -7.4872  -7.4830  -7.4789
    -7.4676  -7.4668  -7.4643  -7.4630  -7.4607  -7.4591  -7.4570  -7.4557
    -7.4535  -7.4526  -7.4515  -7.4495  -7.4389  -7.4369  -7.4359  -7.4330
    -7.4309  -7.4206  -7.3871  -7.3633  -7.3470  -7.3368  -7.3172  -6.5609
    -6.4719  -6.4263  -5.9407  -5.8044  -5.6971  -5.6445  -5.6059  -5.5935
    -5.5747  -5.3954  -5.2009  -5.1979  -5.1729  -5.1455  -5.0784  -5.0644
    -4.9290  -4.8019  -4.3812  -4.3778  -4.2197  -4.0203  -3.2375  -3.1918
    -3.1037  -3.0617  -3.0284  -2.9964  -2.8825  -2.7049  -2.6620  -2.5151
    -2.4303  -2.4003  -2.3704  -2.3194  -2.2654  -1.9139  -1.8890  -1.8840
    -1.8809  -1.7078  -1.6736  -1.6529  -1.5630  -1.4677  -1.4088  -1.3730
    -1.3226  -1.1060  -1.0798  -0.8004  -0.7713  -0.7353  -0.7056  -0.4188
    -0.3366  -0.3017  -0.2602   0.2600   0.2810   0.3189   0.3807   0.4108
     0.5932   0.6288   0.6319   0.6825   0.8768   1.1142   1.2592   1.3167
     1.3269   1.3620   1.3901   1.3982   1.4144   1.4308   1.4506   1.5485
     1.6295   1.7232   1.7443   1.7931   1.8329   1.8475   1.9593   2.1450
     2.1980   2.2189   2.2834   2.3195   2.4967   2.5726   2.6232   2.6390
     2.7878   2.8333   2.8372   2.9947   3.0307   3.0813   3.1173   3.1463
     3.1573   3.1811   3.2550   3.3637   3.5082   3.5903   3.7614   3.7871
     3.9138   3.9260   3.9439   3.9601   3.9649   4.0505   4.1490   4.1839
     4.2000   4.2296   4.2628   4.2752   4.2858   4.3117   4.3210   4.3377
     4.3957   4.4080   4.4261   4.4392   4.4597   4.4924   4.5579   4.6401
     4.6471   4.6552   4.6620   4.7594   4.7948   4.8071   4.8361   4.8540
     4.8645   4.8886   4.9634   4.9986   5.0437   5.0569   5.0850   5.1063
     5.1170   5.1218   5.1648   5.1708   5.2647   5.2985   5.3237   5.3281
     5.3410   5.3473   5.3908   5.5076   5.5544   5.5653   5.5915   5.5955
     5.6198   5.6351   5.6698   5.6891   5.6973

     the Fermi energy is    -0.8221 ev

!    total energy              =  -27735.89657623 Ry
     estimated scf accuracy    <       0.00000071 Ry
     smearing contrib. (-TS)   =      -0.01709703 Ry
     internal energy E=F+TS    =  -27735.87947921 Ry

     The total energy is F=E-TS. E is the sum of the following terms:
     one-electron contribution = -162632.75350336 Ry
     hartree contribution      =   81142.07356032 Ry
     xc contribution           =   -2537.16931841 Ry
     ewald contribution        =   56301.48885245 Ry
     one-center paw contrib.   =      -9.51907022 Ry

     convergence has been achieved in  15 iterations

     negative rho (up, down):  2.562E-03 0.000E+00

     Forces acting on atoms (cartesian axes, Ry/au):

     atom    1 type  1   force =    -0.00028219    0.00027406   -0.00606687
     atom    2 type  1   force =     0.00001086   -0.00119912   -0.00705024
     atom    3 type  1   force =    -0.00031190    0.00088805   -0.00703325
     atom    4 type  1   force =    -0.00082340   -0.00078348   -0.00673602
     atom    5 type  1   force =     0.00145030    0.00061786   -0.00575985
     atom    6 type  1   force =    -0.00050245    0.00073684   -0.00670166
     atom    7 type  1   force =     0.00510355   -0.05571957   -0.07995341
     atom    8 type  1   force =     0.00293429    0.04541547   -0.05261874
     atom    9 type  1   force =    -0.00065865   -0.00349565   -0.00752908
     atom   10 type  1   force =    -0.00008840   -0.00119691   -0.00372487
     atom   11 type  1   force =     0.00105621   -0.00078838   -0.00571154
     atom   12 type  1   force =    -0.00013520   -0.00152778   -0.00667574
     atom   13 type  1   force =    -0.00106610    0.00074513   -0.00651870
     atom   14 type  1   force =     0.00151394    0.00128976   -0.00571738
     atom   15 type  1   force =    -0.00035067    0.00047396   -0.00779347
     atom   16 type  1   force =     0.00078731    0.00020985    0.02660927
     atom   17 type  1   force =    -0.00060402   -0.00050654    0.02612191
     atom   18 type  1   force =     0.00018200   -0.00008942    0.02713757
     atom   19 type  1   force =    -0.00064470    0.00092554    0.02660013
     atom   20 type  1   force =     0.00038693   -0.00075847    0.02734758
     atom   21 type  1   force =     0.00000555   -0.00119904    0.02725608
     atom   22 type  1   force =     0.00061138   -0.00880448    0.02414668
     atom   23 type  1   force =     0.00759062    0.01410584    0.14185145
     atom   24 type  1   force =     0.00020085    0.00426890    0.02173005
     atom   25 type  1   force =    -0.00046919    0.00665204    0.02611718
     atom   26 type  1   force =     0.00091601    0.00069625    0.02818921
     atom   27 type  1   force =     0.00112443   -0.00074442    0.02576345
     atom   28 type  1   force =     0.00103405    0.00021259    0.02654412
     atom   29 type  1   force =     0.00097501    0.00095747    0.02617952
     atom   30 type  1   force =     0.00034598   -0.00069259    0.02748015
     atom   31 type  1   force =     0.00034337   -0.00026781   -0.02531296
     atom   32 type  1   force =    -0.00226316   -0.00138261   -0.02881616
     atom   33 type  1   force =    -0.01558651    0.00138759   -0.03243712
     atom   34 type  1   force =     0.00049111   -0.00012393   -0.02885475
     atom   35 type  1   force =     0.00071795    0.00010560   -0.02500884
     atom   36 type  1   force =    -0.00092685    0.00017921   -0.02503833
     atom   37 type  1   force =     0.00050601    0.00068858   -0.02721563
     atom   38 type  1   force =     0.00599947   -0.00021351   -0.02576417
     atom   39 type  1   force =    -0.00099249   -0.00121852   -0.02682084
     atom   40 type  1   force =    -0.00083897    0.00060317   -0.02513351
     atom   41 type  1   force =    -0.00037213   -0.00021148   -0.02744439
     atom   42 type  1   force =     0.00006758   -0.00040931   -0.03044364
     atom   43 type  1   force =    -0.00011495   -0.00160579   -0.02913061
     atom   44 type  1   force =     0.00095315    0.00277889   -0.03075838
     atom   45 type  1   force =    -0.00085652   -0.00055723   -0.02673648
     atom   46 type  1   force =     0.00401194   -0.00024582    0.00615239
     atom   47 type  1   force =     0.00382319   -0.00155537    0.00628673
     atom   48 type  1   force =    -0.01116803   -0.00530633    0.00044204
     atom   49 type  1   force =    -0.00751150    0.00336231    0.00408659
     atom   50 type  1   force =     0.00254545    0.00043216    0.00615748
     atom   51 type  1   force =    -0.00298785   -0.00004544    0.00662854
     atom   52 type  1   force =    -0.00359962   -0.00161102    0.00642559
     atom   53 type  1   force =     0.00646315    0.00190813    0.00844145
     atom   54 type  1   force =     0.01440826    0.00078478    0.00870891
     atom   55 type  1   force =    -0.00245725    0.00126663    0.00601034
     atom   56 type  1   force =    -0.00204387   -0.00023371    0.00668461
     atom   57 type  1   force =    -0.00054667   -0.00088508    0.00581445
     atom   58 type  1   force =    -0.00012675    0.00080066    0.00580851
     atom   59 type  1   force =    -0.00010178   -0.00045477    0.00609151
     atom   60 type  1   force =    -0.00010044    0.00085924    0.00491097
     atom   61 type  2   force =     0.41706443    0.28603406   -0.01867976
     atom   62 type  3   force =    -0.32397518   -0.27237121    0.12736788
     atom   63 type  3   force =    -0.10111692   -0.01345584   -0.07590593

     Total force =     0.725096     Total SCF correction =     0.009575
     Energy error            =      3.7E-02 Ry
     Gradient error          =      4.2E-01 Ry/Bohr

     number of scf cycles    =   3
     number of bfgs steps    =   2

     energy             old  =  -27735.8593576231 Ry
     energy             new  =  -27735.8965762317 Ry

     CASE: energy            _new < energy            _old

     new trust radius        =       0.3631511179 bohr
     new conv_thr            =       0.0000010000 Ry


ATOMIC_POSITIONS (angstrom)
Zn               1.2182872384        1.3081192867        0.7425578788
Zn               1.2175615427        3.9206844300        0.7404459375
Zn               1.2176411202        6.5362447922        0.7407109038
Zn               1.2171170431        9.1483713917        0.7420305964
Zn               1.2211817335       11.7656050695        0.7424058066
Zn               6.0905421200        1.3092351614        0.7411001815
Zn               6.0933663473        3.8939850662        0.6984857253
Zn               6.0920539654        6.5603208407        0.7122985670
Zn               6.0909410126        9.1460125267        0.7391448890
Zn               6.0905264272       11.7638148603        0.7435814860
Zn              10.9646798266        1.3066099736        0.7417474791
Zn              10.9637321038        3.9198011250        0.7409699843
Zn              10.9630447298        6.5364340770        0.7407712567
Zn              10.9655759253        9.1512542963        0.7410042729
Zn              10.9638429446       11.7653635490        0.7391746770
[...]

  -126.9842-126.9805-126.9795-126.9639-126.9517-126.9448-126.9413-126.9355
  -126.9252-126.9240-126.9233-126.9226-126.9205-126.9193-126.9177-126.9169
  -126.9131-126.9118-126.9114-126.9064-126.9056-126.9049-126.9044-126.9037
  -126.9017-126.9014-126.9006-126.8996-126.8987-126.8965-126.8955-126.8950
  -126.8942-126.8936-126.8936-126.8923-126.8920-126.8918-126.8916-126.8907
  -126.8903-126.8893-126.8892-126.8889-126.8877-126.8865-126.8855-126.8851
  -126.8845-126.8824-126.8769-126.8735-126.8665-126.8650-126.8643-126.8634
  -126.8570-126.8513-126.8499-126.8378 -81.1614 -81.1555 -81.1496 -81.1484
   -81.1378 -81.1345 -81.1322 -81.1293 -81.1195 -81.1187 -81.1183 -81.1165
   -81.1150 -81.1099 -81.1060 -81.1046 -81.1008 -81.0978 -81.0972 -81.0966
   -81.0955 -81.0949 -81.0942 -81.0923 -81.0913 -81.0912 -81.0907 -81.0866
   -81.0860 -81.0841 -81.0832 -81.0830 -81.0826 -81.0825 -81.0817 -81.0797
   -81.0778 -81.0774 -81.0769 -81.0754 -81.0729 -81.0727 -81.0723 -81.0719
   -81.0708 -81.0704 -81.0702 -81.0700 -81.0696 -81.0696 -81.0690 -81.0689
   -81.0682 -81.0674 -81.0669 -81.0659 -81.0657 -81.0654 -81.0649 -81.0648
   -81.0645 -81.0640 -81.0639 -81.0637 -81.0634 -81.0625 -81.0623 -81.0611
   -81.0610 -81.0607 -81.0605 -81.0600 -81.0599 -81.0593 -81.0587 -81.0586
   -81.0585 -81.0584 -81.0583 -81.0569 -81.0567 -81.0564 -81.0562 -81.0558
   -81.0550 -81.0547 -81.0544 -81.0543 -81.0542 -81.0532 -81.0523 -81.0522
   -81.0516 -81.0514 -81.0511 -81.0508 -81.0503 -81.0497 -81.0493 -81.0487
   -81.0474 -81.0466 -81.0463 -81.0455 -81.0452 -81.0445 -81.0444 -81.0438
   -81.0437 -81.0430 -81.0429 -81.0422 -81.0412 -81.0409 -81.0403 -81.0401
   -81.0386 -81.0386 -81.0380 -81.0379 -81.0374 -81.0373 -81.0369 -81.0367
   -81.0365 -81.0365 -81.0363 -81.0358 -81.0352 -81.0351 -81.0349 -81.0346
   -81.0343 -81.0340 -81.0331 -81.0330 -81.0326 -81.0323 -81.0322 -81.0321
   -81.0317 -81.0316 -81.0312 -81.0310 -81.0310 -81.0308 -81.0304 -81.0301
   -81.0298 -81.0288 -81.0281 -81.0278 -81.0271 -81.0263 -81.0249 -81.0247
   -81.0220 -81.0193 -81.0190 -81.0184 -81.0172 -81.0167 -81.0160 -81.0158
   -81.0147 -81.0103 -81.0100 -81.0091 -81.0080 -81.0078 -81.0064 -81.0046
   -81.0042 -80.9996 -80.9978 -80.9947 -80.9935 -80.9932 -80.9822 -80.9817
   -24.1357 -13.1549  -9.7635  -9.3151  -9.1517  -9.0753  -8.9203  -8.8496
    -8.6921  -8.6283  -8.6167  -8.6132  -8.5855  -8.5804  -8.5680  -8.5632
    -8.5431  -8.5378  -8.5354  -8.5293  -8.5071  -8.4731  -8.4395  -8.4350
    -8.4318  -8.4244  -8.4172  -8.4159  -8.4106  -8.3989  -8.3929  -8.3737
    -8.3695  -8.3620  -8.3602  -8.3566  -8.3502  -8.3469  -8.3364  -8.3336
    -8.3301  -8.3279  -8.3245  -8.3231  -8.3225  -8.3190  -8.3140  -8.3116
    -8.3083  -8.3062  -8.3028  -8.2976  -8.2882  -8.2593  -8.2569  -8.2508
    -8.2483  -8.2472  -8.2447  -8.2433  -8.2413  -8.2391  -8.2380  -8.2351
    -8.2320  -8.2300  -8.2254  -8.2235  -8.2201  -8.2162  -8.2084  -8.2019
    -8.1985  -8.1958  -8.1907  -8.1882  -8.1846  -8.1824  -8.1793  -8.1724
    -8.1720  -8.1691  -8.1566  -8.1511  -8.1354  -8.1274  -8.1216  -8.1185
    -8.1161  -8.1116  -8.1065  -8.1037  -8.0969  -8.0933  -8.0922  -8.0889
    -8.0828  -8.0820  -8.0803  -8.0787  -8.0755  -8.0747  -8.0713  -8.0696
    -8.0657  -8.0652  -8.0580  -8.0553  -8.0510  -8.0485  -8.0434  -8.0372
    -8.0354  -8.0261  -8.0177  -8.0095  -8.0091  -7.9805  -7.9783  -7.9757
    -7.9716  -7.9641  -7.9590  -7.9524  -7.9491  -7.9354  -7.9225  -7.9213
    -7.9188  -7.9109  -7.9072  -7.9006  -7.8911  -7.8890  -7.8837  -7.8820
    -7.8784  -7.8742  -7.8731  -7.8718  -7.8694  -7.8660  -7.8641  -7.8625
    -7.8590  -7.8579  -7.8573  -7.8560  -7.8484  -7.8462  -7.8423  -7.8395
    -7.8388  -7.8346  -7.8291  -7.8212  -7.8176  -7.8128  -7.8077  -7.8050
    -7.8004  -7.7935  -7.7911  -7.7874  -7.7851  -7.7752  -7.7728  -7.7688
    -7.7646  -7.7606  -7.7590  -7.7576  -7.7527  -7.7487  -7.7476  -7.7464
    -7.7436  -7.7394  -7.7352  -7.7303  -7.7287  -7.7247  -7.7220  -7.7169
    -7.7010  -7.7002  -7.6974  -7.6942  -7.6916  -7.6909  -7.6892  -7.6821
    -7.6744  -7.6724  -7.6684  -7.6574  -7.6558  -7.6502  -7.6478  -7.6416
    -7.6392  -7.6381  -7.6335  -7.6254  -7.6235  -7.6151  -7.6037  -7.6023
    -7.5987  -7.5974  -7.5955  -7.5934  -7.5905  -7.5905  -7.5878  -7.5872
    -7.5843  -7.5829  -7.5780  -7.5766  -7.5730  -7.5710  -7.5688  -7.5658
    -7.5622  -7.5612  -7.5576  -7.5521  -7.5504  -7.5488  -7.5482  -7.5446
    -7.5424  -7.5407  -7.5401  -7.5397  -7.5326  -7.5212  -7.5178  -7.5167
    -7.5134  -7.5098  -7.5074  -7.5064  -7.5044  -7.5041  -7.5025  -7.5015
    -7.5008  -7.4973  -7.4963  -7.4947  -7.4932  -7.4908  -7.4898  -7.4838
    -7.4837  -7.4642  -7.4565  -7.4560  -7.4545  -7.4511  -7.4482  -7.4456
    -7.4443  -7.4419  -7.4410  -7.4365  -7.4330  -7.4297  -7.4275  -7.4239
    -7.4230  -7.4212  -7.4190  -7.4169  -7.4102  -7.4026  -7.4003  -7.3977
    -7.3955  -7.3942  -7.3915  -7.3904  -7.3887  -7.3805  -7.3787  -7.3700
    -7.3667  -7.3649  -7.3613  -7.3593  -7.3580  -7.3521  -7.3511  -7.3477
    -7.3449  -7.3410  -7.3397  -7.3374  -7.3358  -7.3242  -7.3155  -7.3082
    -7.3034  -7.3007  -7.2908  -7.2553  -7.2250  -7.2120  -7.2022  -6.8084
    -6.3442  -6.2814  -6.1565  -5.8635  -5.5010  -5.4798  -5.3982  -5.3882
    -5.3758  -5.3189  -5.2385  -5.2291  -5.1826  -5.0227  -4.8829  -4.8699
    -4.7981  -4.7904  -4.4381  -4.4259  -4.3453  -4.0823  -3.2797  -3.2448
    -2.8409  -2.8325  -2.8084  -2.7866  -2.7117  -2.6849  -2.6581  -2.4763
    -2.4655  -2.4060  -2.3684  -2.3514  -2.2550  -1.9257  -1.9094  -1.8065
    -1.7944  -1.6974  -1.5795  -1.4920  -1.4568  -1.4069  -1.3595  -1.3494
    -1.2894  -0.8730  -0.8603  -0.6381  -0.6338  -0.6035  -0.5761  -0.3380
    -0.3306  -0.2991  -0.2377   0.2073   0.4372   0.4586   0.4783   0.5066
     0.6446   0.6746   0.7110   0.7191   0.9140   1.2381   1.3120   1.3475
     1.4318   1.4328   1.4579   1.4773   1.4940   1.5070   1.5547   1.5822
     1.5998   1.7728   1.9813   2.0004   2.0527   2.0630   2.1382   2.1547
     2.2411   2.2742   2.3860   2.4054   2.5628   2.5972   2.6152   2.6673
     2.8202   2.8280   2.9371   2.9598   3.0191   3.1287   3.1362   3.2458
     3.2635   3.2716   3.3199   3.3645   3.5460   3.7106   3.7368   3.8657
     3.8966   3.9322   3.9507   3.9696   3.9773   4.0685   4.1227   4.1449
     4.1567   4.2314   4.2389   4.2633   4.2686   4.2945   4.3386   4.3880
     4.3988   4.4033   4.4225   4.4329   4.4467   4.4990   4.5725   4.6122
     4.6259   4.6350   4.6505   4.6663   4.7669   4.8385   4.8516   4.8590
     4.8644   4.9077   4.9570   5.0441   5.0471   5.0739   5.0933   5.0991
     5.1100   5.1571   5.1795   5.2672   5.2774   5.2866   5.2999   5.3076
     5.3769   5.4354   5.4834   5.4856   5.5068   5.5176   5.5625   5.5661
     5.6027   5.6227   5.6744   5.6918   5.7821

     the Fermi energy is    -0.6763 ev

!    total energy              =  -27736.13679719 Ry
     estimated scf accuracy    <       0.00000040 Ry
     smearing contrib. (-TS)   =      -0.01947567 Ry
     internal energy E=F+TS    =  -27736.11732152 Ry

     The total energy is F=E-TS. E is the sum of the following terms:
     one-electron contribution = -161004.86523155 Ry
     hartree contribution      =   80333.38218704 Ry
     xc contribution           =   -2536.89002252 Ry
     ewald contribution        =   55481.76000679 Ry
     one-center paw contrib.   =      -9.50426128 Ry

     convergence has been achieved in  15 iterations

     negative rho (up, down):  2.550E-03 0.000E+00

     Forces acting on atoms (cartesian axes, Ry/au):

     atom    1 type  1   force =    -0.00024457   -0.00047485    0.00304893
     atom    2 type  1   force =    -0.00105520   -0.00010497    0.00220219
     atom    3 type  1   force =    -0.00123054   -0.00032998    0.00198193
     atom    4 type  1   force =    -0.00054145    0.00038075    0.00328208
     atom    5 type  1   force =     0.00064070    0.00027755    0.00264864
     atom    6 type  1   force =    -0.00015206   -0.00400754    0.00190109
     atom    7 type  1   force =    -0.00008688    0.01336061    0.00409630
     atom    8 type  1   force =    -0.00021118   -0.01184045    0.00420901
     atom    9 type  1   force =     0.00007640    0.00435494    0.00018862
     atom   10 type  1   force =    -0.00018267   -0.00111921    0.00357146
     atom   11 type  1   force =    -0.00024377   -0.00113244    0.00291146
     atom   12 type  1   force =    -0.00050472   -0.00034227    0.00267139
     atom   13 type  1   force =    -0.00030098   -0.00013376    0.00190166
     atom   14 type  1   force =    -0.00032580    0.00086664    0.00296330
     atom   15 type  1   force =    -0.00013149    0.00070330    0.00178139
     atom   16 type  1   force =    -0.00070041    0.00015760    0.01631062
     atom   17 type  1   force =    -0.00076434    0.00004331    0.01525133
     atom   18 type  1   force =    -0.00159073   -0.00041010    0.01593676
     atom   19 type  1   force =    -0.00093184   -0.00020429    0.01564387
     atom   20 type  1   force =    -0.00069412    0.00021251    0.01534157
     atom   21 type  1   force =     0.00007398   -0.00000905    0.01640450
     atom   22 type  1   force =     0.00028777   -0.00227127    0.01169285
     atom   23 type  1   force =     0.00454465   -0.00688900   -0.04821874
     atom   24 type  1   force =     0.00000708    0.00518394    0.00825737
     atom   25 type  1   force =     0.00027955    0.00311611    0.01627558
     atom   26 type  1   force =     0.00019098    0.00057099    0.01617906
     atom   27 type  1   force =     0.00204066    0.00045205    0.01389993
     atom   28 type  1   force =     0.00254091   -0.00076112    0.01561145
     atom   29 type  1   force =     0.00337173    0.00017783    0.01418389
     atom   30 type  1   force =     0.00003378   -0.00019484    0.01496279
     atom   31 type  1   force =    -0.00082229    0.00035307   -0.01556127
     atom   32 type  1   force =    -0.00167895   -0.00002106   -0.01668750
     atom   33 type  1   force =     0.00274159   -0.00033567   -0.01782777
     atom   34 type  1   force =    -0.00092601   -0.00039351   -0.01774402
     atom   35 type  1   force =    -0.00074782   -0.00033150   -0.01551842
     atom   36 type  1   force =     0.00075516    0.00111714   -0.01464623
     atom   37 type  1   force =     0.00199771    0.00022005   -0.01679649
     atom   38 type  1   force =    -0.00330588   -0.00037820   -0.01554736
     atom   39 type  1   force =     0.00077829   -0.00069415   -0.01776517
     atom   40 type  1   force =     0.00077941   -0.00052576   -0.01503455
     atom   41 type  1   force =    -0.00016646    0.00006214   -0.01583495
     atom   42 type  1   force =     0.00033658    0.00028555   -0.01604840
     atom   43 type  1   force =    -0.00079619   -0.00035760   -0.01641165
     atom   44 type  1   force =     0.00029496   -0.00046751   -0.01683339
     atom   45 type  1   force =     0.00003397    0.00028509   -0.01486986
     atom   46 type  1   force =     0.00207027   -0.00004850   -0.00195157
     atom   47 type  1   force =     0.00187083   -0.00000473   -0.00263840
     atom   48 type  1   force =    -0.00536684   -0.00034877   -0.00640096
     atom   49 type  1   force =    -0.00895894    0.00019866   -0.00675733
     atom   50 type  1   force =     0.00112934   -0.00054770   -0.00244330
     atom   51 type  1   force =    -0.00123190   -0.00005529   -0.00258563
     atom   52 type  1   force =    -0.00178775   -0.00035358   -0.00276524
     atom   53 type  1   force =     0.01172676   -0.00351592   -0.00944559
     atom   54 type  1   force =     0.02171972    0.00528196   -0.01329408
     atom   55 type  1   force =    -0.00174712    0.00065034   -0.00271401
     atom   56 type  1   force =     0.00023659    0.00082815   -0.00150891
     atom   57 type  1   force =     0.00006905   -0.00055306   -0.00304794
     atom   58 type  1   force =    -0.00008504   -0.00060115   -0.00421764
     atom   59 type  1   force =    -0.00013435    0.00031374   -0.00385123
     atom   60 type  1   force =     0.00017479   -0.00011031   -0.00361047
     atom   61 type  2   force =    -0.11547665    0.07907070   -0.04804172
     atom   62 type  3   force =    -0.03412616   -0.04166765    0.05854381
     atom   63 type  3   force =     0.12644788   -0.03698798    0.10276497

     Total force =     0.259607     Total SCF correction =     0.007258
     Energy error            =      3.9E-02 Ry
     Gradient error          =      1.3E-01 Ry/Bohr

     number of scf cycles    =   7
     number of bfgs steps    =   6

     energy             old  =  -27736.0978335178 Ry
     energy             new  =  -27736.1367971905 Ry

     CASE: energy            _new < energy            _old

     new trust radius        =       0.1053112493 bohr
     new conv_thr            =       0.0000010000 Ry


ATOMIC_POSITIONS (angstrom)
Zn               1.2176281375        1.3082218957        0.7386295116
Zn               1.2150010747        3.9179960320        0.7328437411
Zn               1.2148066547        6.5381252081        0.7339099725
Zn               1.2140539107        9.1465418130        0.7374634903
Zn               1.2272385439       11.7676119840        0.7390962073
Zn               6.0886475619        1.3009658151        0.7303449489
Zn               6.0998631780        3.8449972518        0.5922582793
Zn               6.0954260689        6.6058899824        0.6380730363
Zn               6.0899713226        9.1470386705        0.7247687022
Zn               6.0894124864       11.7592181267        0.7421872407
Zn              10.9660055282        1.3035414113        0.7374055228
Zn              10.9635228304        3.9163279790        0.7338519459
Zn              10.9619641736        6.5389414249        0.7321273729
Zn              10.9680705090        9.1539903265        0.7351422568
Zn              10.9617586582       11.7671124996        0.7296999398
Zn               1.2197754513        0.0011818925        3.1389210490
Zn               1.2167549769        2.6130930862        3.1362345959
Zn               1.2163806950        5.2276695907        3.1387973389
Zn               1.2152990325        7.8444717215        3.1380511309
Zn               1.2190431147       10.4564509581        3.1388387778
Zn               6.0901562487       -0.0033557217        3.1419830001
Zn               6.0915674340        2.5789243214        3.1207915208
Zn               6.0459599808        5.1755618744        2.8090624103
Zn               6.0900167946        7.8795858142        3.1059427040
Zn               6.0905266201       10.4835634572        3.1380134252
Zn              10.9672991798        0.0034293977        3.1434993031
Zn              10.9724406073        2.6138973284        3.1317468587
Zn              10.9697666913        5.2279985022        3.1396037236
Zn              10.9733103743        7.8447965378        3.1339441737
Zn              10.9647491895       10.4547869007        3.1386985346
Zn               3.6511200897        0.0000740477        1.3932155767
Zn               3.6428175503        2.6116915879        1.3851849479
Zn               3.6206975521        5.2304415962        1.3699875674
Zn               3.6524325410        7.8397274300        1.3811989801
Zn               3.6516622123       10.4594226879        1.3955935736
Zn               8.5275420400        0.0028313457        1.3968331118
Zn               8.5337950207        2.6189364572        1.3859499908
Zn               8.5380270605        5.2275482849        1.3945775038
Zn               8.5263879029        7.8346342827        1.3865607809
Zn               8.5281047662       10.4587508298        1.3963124716
Zn              13.4018205641        0.0003378395        1.3890168525
Zn              13.4057788651        2.6161595506        1.3778960807
Zn              13.4001947057        5.2229652408        1.3810274200
Zn              13.4068773226        7.8497331305        1.3751934603
Zn              13.4010115773       10.4542094303        1.3930696459
Zn               3.6676091637       -1.3080479309        3.7951679324
Zn               3.6674104481        1.3033984920        3.7933281164
Zn               3.6195866749        3.9086163196        3.7789618260
Zn               3.6076679973        6.5479026844        3.7793399297
Zn               3.6618035282        9.1487269199        3.7943353354
Zn               8.5186349514       -1.3073228884        3.7941673379
Zn               8.5153759482        1.3014241039        3.7953119093
Zn               8.5891602617        3.9048418611        3.7769163197
Zn               8.6445242913        6.5698143807        3.7634240877
Zn               8.5182860569        9.1536364790        3.7932494875
Zn              13.3991589995       -1.3057300440        3.7960135595
Zn              13.4017695493        1.3049042496        3.7906260373
Zn              13.4023327041        3.9227494925        3.7891165675
Zn              13.4021200954        6.5349721358        3.7899407003
Zn              13.4036125907        9.1508497542        3.7863335556
O                6.2809550030        5.5520743516        4.7990930335
H                5.5240005465        4.9537131888        4.9568710486
H                7.1322273898        5.4447246264        5.2795005364



     Writing config-only to output data dir /home/ys/Research/PSID_server_room/qe/zinc_surface_water.relax/Zn_100_water/pwscf.save/ :
     XML data file
     NEW-OLD atomic charge density approx. for the potential

     negative rho (up, down):  2.891E-03 0.000E+00

     total cpu time spent up to now is    57239.4 secs

     Self-consistent Calculation

     iteration #  1     ecut=    50.00 Ry     beta= 0.70
     Davidson diagonalization with overlap
     ethr =  1.00E-06,  avg # of iterations =  7.0

     negative rho (up, down):  2.527E-03 0.000E+00

     total cpu time spent up to now is    58321.9 secs

     total energy              =  -27736.17109854 Ry
     estimated scf accuracy    <       0.00453613 Ry

     iteration #  2     ecut=    50.00 Ry     beta= 0.70
     Davidson diagonalization with overlap
     ethr =  3.76E-07,  avg # of iterations =  4.0

     negative rho (up, down):  2.535E-03 0.000E+00

     total cpu time spent up to now is    58810.6 secs

     total energy              =  -27736.16708067 Ry
     estimated scf accuracy    <       0.02547443 Ry

     iteration #  3     ecut=    50.00 Ry     beta= 0.70
     Davidson diagonalization with overlap
     ethr =  3.76E-07,  avg # of iterations =  7.0

     negative rho (up, down):  2.545E-03 0.000E+00

     total cpu time spent up to now is    59308.6 secs

     total energy              =  -27736.16631558 Ry
     estimated scf accuracy    <       0.12910765 Ry

     iteration #  4     ecut=    50.00 Ry     beta= 0.70
     Davidson diagonalization with overlap
     ethr =  3.76E-07,  avg # of iterations =  7.0

     negative rho (up, down):  2.544E-03 0.000E+00

     total cpu time spent up to now is    59799.1 secs

     total energy              =  -27736.17163077 Ry
     estimated scf accuracy    <       0.00425461 Ry

     iteration #  5     ecut=    50.00 Ry     beta= 0.70
     Davidson diagonalization with overlap
     ethr =  3.52E-07,  avg # of iterations =  2.0

     negative rho (up, down):  2.544E-03 0.000E+00

     total cpu time spent up to now is    60259.0 secs

     total energy              =  -27736.17184954 Ry
     estimated scf accuracy    <       0.00498861 Ry

     iteration #  6     ecut=    50.00 Ry     beta= 0.70
     Davidson diagonalization with overlap
     ethr =  3.52E-07,  avg # of iterations =  2.0

     negative rho (up, down):  2.544E-03 0.000E+00

     total cpu time spent up to now is    60715.9 secs

     total energy              =  -27736.17189808 Ry
     estimated scf accuracy    <       0.00781304 Ry

     iteration #  7     ecut=    50.00 Ry     beta= 0.70
     Davidson diagonalization with overlap
