
                                 *****************
                                 * O   R   C   A *
                                 *****************

                                            #,                                       
                                            ###                                      
                                            ####                                     
                                            #####                                    
                                            ######                                   
                                           ########,                                 
                                     ,,################,,,,,                         
                               ,,#################################,,                 
                          ,,##########################################,,             
                       ,#########################################, ''#####,          
                    ,#############################################,,   '####,        
                  ,##################################################,,,,####,       
                ,###########''''           ''''###############################       
              ,#####''   ,,,,##########,,,,          '''####'''          '####       
            ,##' ,,,,###########################,,,                        '##       
           ' ,,###''''                  '''############,,,                           
         ,,##''                                '''############,,,,        ,,,,,,###''
      ,#''                                            '''#######################'''  
     '                                                          ''''####''''         
             ,#######,   #######,   ,#######,      ##                                
            ,#'     '#,  ##    ##  ,#'     '#,    #''#        ,####,   ,####,        
            ##       ##  ##   ,#'  ##            #'  '#       #'       #'  '#        
            ##       ##  #######   ##           ,######,      #####,   #    #        
            '#,     ,#'  ##    ##  '#,     ,#' ,#      #,     #,   #   #,  ,#        
             '#######'   ##     ##  '#######'  #'      '#     '####' # '####'        



                #########################################################
                #                        -***-                          #
                #          Department of theory and spectroscopy        #
                #                                                       #
                #                      Frank Neese                      #
                #                                                       #
                #     Directorship, Architecture, Infrastructure        #
                #                    SHARK, DRIVERS                     #
                #        Core code/Algorithms in most modules           #
                #                                                       #
                #        Max Planck Institute fuer Kohlenforschung      #
                #                Kaiser Wilhelm Platz 1                 #
                #                 D-45470 Muelheim/Ruhr                 #
                #                      Germany                          #
                #                                                       #
                #                  All rights reserved                  #
                #                        -***-                          #
                #########################################################


                         Program Version 6.0.1  -  RELEASE   -


 With contributions from (in alphabetic order):
[Max-Planck-Institut fuer Kohlenforschung]                               
  Daniel Aravena         : Magnetic Suceptibility                        
  Michael Atanasov       : Ab Initio Ligand Field Theory (pilot matlab implementation)
  Alexander A. Auer      : GIAO ZORA, VPT2 properties, NMR spectrum      
  Ute Becker             : All parallelization in ORCA, NUMFREQ, NUMCALC 
  Giovanni Bistoni       : ED, misc. LED, open-shell LED, HFLD           
  Martin Brehm           : Molecular dynamics                            
  Dmytro Bykov           : pre 5.0 version of the SCF Hessian            
  Marcos Casanova-Páez   : Triplet and SCS-CIS(D). UHF-(DLPNO)-IP/EA/STEOM-CCSD. UHF-CVS-IP/STEOM-CCSD   
  Vijay G. Chilkuri      : MRCI spin determinant printing, contributions to CSF-ICE 
  Pauline Colinet        : FMM embedding                                 
  Dipayan Datta          : RHF DLPNO-CCSD density                        
  Achintya Kumar Dutta   : EOM-CC, STEOM-CC                              
  Nicolas Foglia         : Exact transition moments, OPA infrastructure, MCD improvements    
  Dmitry Ganyushin       : Spin-Orbit,Spin-Spin,Magnetic field MRCI      
  Miquel Garcia-Rates    : C-PCM and meta-GGA Hessian, CCSD/C-PCM, Gaussian charge scheme 
  Tiago L. C. Gouveia    : GS-ROHF, GS-ROCIS                             
  Yang Guo               : DLPNO-NEVPT2, F12-NEVPT2, CIM, IAO-localization        
  Andreas Hansen         : Spin unrestricted coupled pair/coupled cluster methods 
  Ingolf Harden          : AUTO-CI MPn and infrastructure                
  Benjamin Helmich-Paris : MC-RPA, TRAH-(SCF,CASSCF), AVAS, COSX integrals, SCF dyn. polar. 
  Lee Huntington         : MR-EOM, pCC                                   
  Robert Izsak           : Overlap fitted RIJCOSX, COSX-SCS-MP3, EOM     
  Riya Kayal             : Wick's Theorem for AUTO-CI, AUTO-CI UHF-CCSDT 
  Emily Kempfer          : AUTO-CI, RHF CISDT and CCSDT                  
  Christian Kollmar      : KDIIS, OOCD, Brueckner-CCSD(T), CCSD density, CASPT2, CASPT2-K, improved NEVPT2 
  Axel Koslowski         : Symmetry handling                             
  Simone Kossmann        : meta-GGA functionals, TD-DFT gradient, OOMP2, (MP2 Hessian; deprecated post 5.0) 
  Lucas Lang             : DCDCAS                                        
  Marvin Lechner         : AUTO-CI (C++ implementation), FIC-MRCC        
  Spencer Leger          : CASSCF response                               
  Dagmar Lenk            : GEPOL surface, SMD, ORCA-2-JSON               
  Dimitrios Liakos       : Extrapolation schemes; Compound Job, initial MDCI parallelization 
  Dimitrios Manganas     : Further ROCIS development; embedding schemes. LFT, Crystal Embedding 
  Dimitrios Pantazis     : SARC Basis sets                               
  Anastasios Papadopoulos: AUTO-CI, single reference methods and gradients 
  Taras Petrenko         : pre 6.0 DFT Hessian and TD-DFT gradient, (ASA, deprecated), ECA, 1-Electron XAS/XES, NRVS 
  Peter Pinski           : DLPNO-MP2, DLPNO-MP2 Gradient                 
  Christoph Reimann      : Effective Core Potentials                     
  Marius Retegan         : Local ZFS, SOC                                
  Christoph Riplinger    : Optimizer, TS searches, QM/MM, DLPNO-CCSD(T), (RO)-DLPNO pert. Triples 
  Michael Roemelt        : Original ROCIS implementation                 
  Masaaki Saitow         : Open-shell DLPNO-CCSD energy and density      
  Barbara Sandhoefer     : DKH picture change effects                    
  Kantharuban Sivalingam : CASSCF convergence/infrastructure, NEVPT2 and variants, FIC-MRCI 
  Bernardo de Souza      : ESD, SOC TD-DFT                               
  Georgi L. Stoychev     : AutoAux, RI-MP2 NMR, DLPNO-MP2 response, X2C  
  Van Anh Tran           : RI-MP2 g-tensors                              
  Willem Van den Heuvel  : Paramagnetic NMR                              
  Zikuan Wang            : NOTCH, Electric field optimization            
  Frank Wennmohs         : Technical directorship and infrastructure     
  Hang Xu                : AUTO-CI-Response properties                   
                                                                         
[FACCTs GmbH]                                                            
  Markus Bursch, Miquel Garcia-Rates, Christoph Riplinger, Bernardo de Souza, Georgi L. Stoychev 
                                                                 
  APM, Basis sets (HGBS, AHGBS, def-TZVP (Ac-Lr), def2-XVPD (La-Lu)), CI-OPT, improved COSX, DLPNO-Multilevel,           
  DOCKER, DRACO, updates on ESD, GOAT, IRC, LR-CPCM, MBIS, meta-GGA TD-DFT gradient, ML-optimized integration grids, 
  MM, NACMEs, nearIR, NEB, NEB-TS, NL-DFT gradient (VV10), 2- and 3-layer-ONIOM, interface openCOSMO-RS, QMMM,   
  Crystal-QMMM, SF, symmetry and pop. for TD-DFT, r2SCAN hybrids, SOLVATOR                                   
                                                                         
[Other institutions]                                                     
  V. Asgeirsson          : NEB                                           
  Christoph Bannwarth    : sTDA-DFT, sTD-DFT, PBEh-3c, B97-3c, D3        
  Sebastian Ehlert       : rSCAN, r2SCAN, r2SCAN-3c, D4, dhf basis sets  
  Marvin Friede          : D4 for Fr, Ra, Ac-Lr                          
  Lars Goerigk           : TD-DFT with DH, B97 family of functionals     
  Stefan Grimme          : VdW corrections, initial TS optimization, DFT functionals, gCP, sTDA/sTD-DF 
  Waldemar Hujo          : DFT-NL                                        
  H. Jonsson             : NEB                                           
  Holger Kruse           : gCP                                           
  Marcel Mueller         : wB97X-3c, vDZP basis set                      
  Hagen Neugebauer       : wr2SCAN                                       
  Tobias Risthaus        : range-separated hybrid DFT                    
  Lukas Wittmann         : regularized MP2, r2SCAN double-hybrids, wr2SCAN        
                                                                         
We gratefully acknowledge several colleagues who have allowed us to      
interface, adapt or use parts of their codes:                            
  Ed Valeev, F. Pavosevic, A. Kumar             : LibInt (2-el integral package), F12 methods 
  Garnet Chan, S. Sharma, J. Yang, R. Olivares  : DMRG                   
  Ulf Ekstrom                                   : XCFun DFT Library      
  Mihaly Kallay                                 : mrcc  (arbitrary order and MRCC methods)
  Frank Weinhold                                : gennbo (NPA and NBO analysis)           
  Simon Mueller                                 : openCOSMO-RS                            
  Christopher J. Cramer and Donald G. Truhlar   : smd solvation model                     
  S Lehtola, MJT Oliveira, MAL Marques          : LibXC Library                           
  Liviu Ungur et al                             : ANISO software                          


 Your calculation uses the libint2 library for the computation of 2-el integrals
 For citations please refer to: http://libint.valeyev.net

 Your ORCA version has been built with support for libXC version: 6.2.2
 For citations please refer to: https://libxc.gitlab.io

 This ORCA versions uses:
   CBLAS   interface :  Fast vector & matrix operations
   LAPACKE interface :  Fast linear algebra routines
   SCALAPACK package :  Parallel linear algebra routines
   Shared memory     :  Shared parallel matrices
   BLAS/LAPACK       :  OpenBLAS 0.3.27  USE64BITINT DYNAMIC_ARCH NO_AFFINITY SkylakeX SINGLE_THREADED
        Core in use  :  SkylakeX
   Copyright (c) 2011-2014, The OpenBLAS Project


NOTE: MaxCore=2000 MB was set to SCF,MP2,MDCI,CIPSI,MRCI and CIS
      => If you want to overwrite this, your respective input block should be placed after the MaxCore statement
Your calculation utilizes the atom-pairwise dispersion correction
with the Becke-Johnson damping scheme (D3BJ)


Warning: RI is on but no J-basis has been assigned. Assigning Def2/J (nothing to worry about!)
================================================================================

----- Orbital basis set information -----
Your calculation utilizes the basis: def2-SVP
   F. Weigend and R. Ahlrichs, Phys. Chem. Chem. Phys. 7, 3297 (2005).

----- AuxJ basis set information -----
Your calculation utilizes the auxiliary basis: def2/J
   F. Weigend, Phys. Chem. Chem. Phys. 8, 1057 (2006).

================================================================================
                                        WARNINGS
                       Please study these warnings very carefully!
================================================================================


WARNING: Geometry Optimization
  ===> : Switching off AutoStart
         For restart on a previous wavefunction, please use MOREAD

================================================================================
                                       INPUT FILE
================================================================================
NAME = 4nitroaniline_water_2.inp
|  1> ! B3LYP def2-SVP OPT TightSCF D3BJ
|  2> 
|  3> %maxcore 2000
|  4> 
|  5> %pal
|  6> nprocs 10
|  7> end
|  8> 
|  9> * xyz 0 1
| 10>   N           2.55117149060326      4.44526066165801      0.82633110311114
| 11>   N          -4.20213401361592      3.78416613497714      0.50502576007923
| 12>   C           1.19304188962491      4.32804157971210      0.75822441747697
| 13>   C           0.54095220282082      3.22497236850657      1.36413180948534
| 14>   C           0.39808698290535      5.28293717769775      0.08031620823209
| 15>   C          -1.62482523417575      4.04614362206171      0.61887547041965
| 16>   C          -0.83659953092553      3.09175686110966      1.29431043021468
| 17>   C          -0.97998770551002      5.14319387823965      0.01261164115648
| 18>   C          -3.04614221590856      3.90231093284715      0.55254228529624
| 19>   H           1.15026834298402      2.48476820592375      1.88592785212972
| 20>   H           0.87972058044603      6.14110422137102     -0.39611225463595
| 21>   H          -1.32468612244834      2.23634340490772      1.76653742053056
| 22>   H          -1.57539468064350      5.89163274100634     -0.51429906938056
| 23>   H           3.01076389209504      5.26110528175429      0.44872694068681
| 24>   H           3.08376160728454      3.80553462864980      1.41071995019590
| 25>   O           3.61369499966699      2.38059683214597      2.61802289635609
| 26>   H           4.01312957777654      1.52942223408841      2.39396662216865
| 27>   H           3.37362793702008      2.29525923334279      3.55055051647689
| 28> *
| 29> 
| 30>                          ****END OF INPUT****
================================================================================

                       *****************************
                       * Geometry Optimization Run *
                       *****************************

Geometry optimization settings:
Update method            Update   .... BFGS
Choice of coordinates    CoordSys .... (2022) Redundant Internals
Initial Hessian          InHess   .... Almloef's Model
Max. no of cycles        MaxIter  .... 54

Convergence Tolerances:
Energy Change            TolE     ....  5.0000e-06 Eh
Max. Gradient            TolMAXG  ....  3.0000e-04 Eh/bohr
RMS Gradient             TolRMSG  ....  1.0000e-04 Eh/bohr
Max. Displacement        TolMAXD  ....  4.0000e-03 bohr
RMS Displacement         TolRMSD  ....  2.0000e-03 bohr
Strict Convergence                .... False

------------------------------------------------------------------------------
                        ORCA OPTIMIZATION COORDINATE SETUP
------------------------------------------------------------------------------

The optimization will be done in redundant internal coordinates (2022)
Making redundant internal coordinates   ...  (2022 redundants) done
Evaluating the initial hessian          ...  (Almloef) done
Evaluating the coordinates              ...  done
Calculating the B-matrix                .... done
Calculating the G-matrix                .... done
Diagonalizing the G-matrix              .... done
Small eigenvalue found = 8.318e-03
The first mode is                       ....   29
The number of degrees of freedom        ....   48

    -----------------------------------------------------------------
                    Redundant Internal Coordinates


    -----------------------------------------------------------------
         Definition                    Initial Value    Approx d2E/dq
    -----------------------------------------------------------------
      1. B(C   2,N   0)                  1.3649         0.613697   
      2. B(C   3,C   2)                  1.4174         0.564906   
      3. B(C   4,C   2)                  1.4154         0.569148   
      4. B(C   6,C   5)                  1.4101         0.580336   
      5. B(C   6,C   3)                  1.3857         0.634656   
      6. B(C   7,C   5)                  1.4096         0.581452   
      7. B(C   7,C   4)                  1.3868         0.632195   
      8. B(C   8,C   5)                  1.4301         0.539184   
      9. B(C   8,N   1)                  1.1630         1.288440   
     10. B(H   9,C   3)                  1.0915         0.358081   
     11. B(H  10,C   4)                  1.0933         0.355701   
     12. B(H  11,C   6)                  1.0922         0.357166   
     13. B(H  12,C   7)                  1.0919         0.357560   
     14. B(H  13,N   0)                  1.0097         0.433249   
     15. B(H  14,N   0)                  1.0171         0.421629   
     16. B(O  15,H  14)                  1.9414         0.014134   
     17. B(H  16,O  15)                  0.9666         0.507567   
     18. B(H  17,O  15)                  0.9667         0.507301   
     19. A(C   2,N   0,H  13)          120.2437         0.358122   
     20. A(H  13,N   0,H  14)          118.9979         0.302063   
     21. A(C   2,N   0,H  14)          119.7172         0.356471   
     22. A(N   0,C   2,C   3)          120.2173         0.423320   
     23. A(C   3,C   2,C   4)          118.1236         0.420392   
     24. A(N   0,C   2,C   4)          121.6569         0.423886   
     25. A(C   6,C   3,H   9)          120.9186         0.353971   
     26. A(C   2,C   3,C   6)          120.7043         0.428665   
     27. A(C   2,C   3,H   9)          118.3772         0.347080   
     28. A(C   2,C   4,H  10)          119.3948         0.347127   
     29. A(C   2,C   4,C   7)          120.8984         0.428942   
     30. A(C   7,C   4,H  10)          119.7068         0.353339   
     31. A(C   6,C   5,C   7)          118.4938         0.424038   
     32. A(C   7,C   5,C   8)          120.8627         0.418507   
     33. A(C   6,C   5,C   8)          120.6435         0.418363   
     34. A(C   3,C   6,C   5)          120.9811         0.430743   
     35. A(C   5,C   6,H  11)          119.1684         0.348508   
     36. A(C   3,C   6,H  11)          119.8505         0.353817   
     37. A(C   5,C   7,H  12)          119.4430         0.348686   
     38. A(C   4,C   7,H  12)          119.7583         0.353651   
     39. A(C   4,C   7,C   5)          120.7986         0.430592   
     40. L(N   1,C   8,C   5,C   6, 2) 180.4821         0.480279   
     41. L(N   1,C   8,C   5,C   6, 1) 179.7829         0.480279   
     42. A(N   0,H  14,O  15)          164.1432         0.187190   
     43. A(H  14,O  15,H  17)          126.6486         0.191388   
     44. A(H  14,O  15,H  16)          127.9530         0.191400   
     45. A(H  16,O  15,H  17)          104.3886         0.319279   
     46. D(C   4,C   2,N   0,H  14)    172.8407         0.030449   
     47. D(C   3,C   2,N   0,H  14)     -7.7109         0.030449   
     48. D(C   3,C   2,N   0,H  13)   -175.9261         0.030449   
     49. D(C   4,C   2,N   0,H  13)      4.6255         0.030449   
     50. D(H   9,C   3,C   2,N   0)      0.3848         0.021874   
     51. D(C   6,C   3,C   2,C   4)     -0.1448         0.021874   
     52. D(C   6,C   3,C   2,N   0)   -179.6124         0.021874   
     53. D(H   9,C   3,C   2,C   4)    179.8525         0.021874   
     54. D(H  10,C   4,C   2,C   3)   -179.8906         0.022218   
     55. D(H  10,C   4,C   2,N   0)     -0.4310         0.022218   
     56. D(C   7,C   4,C   2,C   3)      0.0697         0.022218   
     57. D(C   7,C   4,C   2,N   0)    179.5292         0.022218   
     58. D(H  11,C   6,C   3,C   2)   -179.9786         0.027954   
     59. D(C   5,C   6,C   3,H   9)   -179.9048         0.027954   
     60. D(H  11,C   6,C   5,C   8)      0.1404         0.023140   
     61. D(H  11,C   6,C   5,C   7)   -179.8923         0.023140   
     62. D(C   3,C   6,C   5,C   8)   -179.9302         0.023140   
     63. D(C   3,C   6,C   5,C   7)      0.0372         0.023140   
     64. D(H  11,C   6,C   3,H   9)      0.0242         0.027954   
     65. D(C   5,C   6,C   3,C   2)      0.0924         0.027954   
     66. D(H  12,C   7,C   5,C   8)     -0.0185         0.023233   
     67. D(C   4,C   7,C   5,C   8)    179.8546         0.023233   
     68. D(C   4,C   7,C   5,C   6)     -0.1126         0.023233   
     69. D(H  12,C   7,C   4,H  10)     -0.1083         0.027724   
     70. D(H  12,C   7,C   4,C   2)    179.9315         0.027724   
     71. D(H  12,C   7,C   5,C   6)   -179.9858         0.023233   
     72. D(C   5,C   7,C   4,H  10)   -179.9811         0.027724   
     73. D(C   5,C   7,C   4,C   2)      0.0588         0.027724   
     74. D(O  15,H  14,N   0,H  13)    169.6459         0.202490   
     75. D(O  15,H  14,N   0,C   2)      1.2839         0.202490   
     76. D(H  16,O  15,H  14,N   0)    102.1924         0.001604   
     77. D(H  17,O  15,H  14,N   0)    -64.4823         0.001604   
    -----------------------------------------------------------------

Number of atoms                         .... 18
Number of degrees of freedom            .... 77


         *************************************************************
         *                GEOMETRY OPTIMIZATION CYCLE   1            *
         *************************************************************
---------------------------------
CARTESIAN COORDINATES (ANGSTROEM)
---------------------------------
  N      2.551171    4.445261    0.826331
  N     -4.202134    3.784166    0.505026
  C      1.193042    4.328042    0.758224
  C      0.540952    3.224972    1.364132
  C      0.398087    5.282937    0.080316
  C     -1.624825    4.046144    0.618875
  C     -0.836600    3.091757    1.294310
  C     -0.979988    5.143194    0.012612
  C     -3.046142    3.902311    0.552542
  H      1.150268    2.484768    1.885928
  H      0.879721    6.141104   -0.396112
  H     -1.324686    2.236343    1.766537
  H     -1.575395    5.891633   -0.514299
  H      3.010764    5.261105    0.448727
  H      3.083762    3.805535    1.410720
  O      3.613695    2.380597    2.618023
  H      4.013130    1.529422    2.393967
  H      3.373628    2.295259    3.550551

----------------------------
CARTESIAN COORDINATES (A.U.)
----------------------------
  NO LB      ZA    FRAG     MASS         X           Y           Z
   0 N     7.0000    0    14.007    4.821015    8.400325    1.561539
   1 N     7.0000    0    14.007   -7.940882    7.151038    0.954360
   2 C     6.0000    0    12.011    2.254522    8.178813    1.432836
   3 C     6.0000    0    12.011    1.022252    6.094315    2.577836
   4 C     6.0000    0    12.011    0.752275    9.983304    0.151776
   5 C     6.0000    0    12.011   -3.070475    7.646103    1.169505
   6 C     6.0000    0    12.011   -1.580944    5.842574    2.445892
   7 C     6.0000    0    12.011   -1.851908    9.719228    0.023833
   8 C     6.0000    0    12.011   -5.756375    7.374299    1.044154
   9 H     1.0000    0     1.008    2.173692    4.695531    3.563887
  10 H     1.0000    0     1.008    1.662431   11.605005   -0.748544
  11 H     1.0000    0     1.008   -2.503294    4.226077    3.338272
  12 H     1.0000    0     1.008   -2.977064   11.133572   -0.971884
  13 H     1.0000    0     1.008    5.689519    9.942048    0.847971
  14 H     1.0000    0     1.008    5.827465    7.191418    2.665874
  15 O     8.0000    0    15.999    6.828894    4.498676    4.947346
  16 H     1.0000    0     1.008    7.583716    2.890189    4.523941
  17 H     1.0000    0     1.008    6.375233    4.337411    6.709568

--------------------------------
INTERNAL COORDINATES (ANGSTROEM)
--------------------------------
 N      0   0   0     0.000000000000     0.00000000     0.00000000
 N      1   0   0     6.793189113368     0.00000000     0.00000000
 C      1   2   0     1.364879059424     0.67400339     0.00000000
 C      3   1   2     1.417429508666   120.21728391    18.85333798
 C      3   1   4     1.415393389462   121.65686515   180.55155629
 C      5   3   1     2.431435422989    91.03263939   179.55851658
 C      4   3   1     1.385738133834   120.70429494   180.38755740
 C      5   3   1     1.386795567125   120.89844256   179.52924654
 C      2   1   3     1.162984544093     0.44284669    43.71237976
 H      4   3   1     1.091530792551   118.37715070     0.38484123
 H      5   3   1     1.093346092213   119.39476731   359.56899750
 H      7   4   3     1.092226639603   119.85049921   180.02141403
 H      8   5   3     1.091927238517   119.75826210   179.93152411
 H      1   2   9     1.009659607556   120.89523843    28.83106187
 H      1   2   9     1.017060447708   119.11385440   197.31759720
 O     15   1   2     1.941354560114   164.14320497     0.93886481
 H     16  15   1     0.966564737910   127.95297308   102.19238501
 H     16  15   1     0.966707020056   126.64856852   295.51772455

---------------------------
INTERNAL COORDINATES (A.U.)
---------------------------
 N      0   0   0     0.000000000000     0.00000000     0.00000000
 N      1   0   0    12.837267000201     0.00000000     0.00000000
 C      1   2   0     2.579247628235     0.67400339     0.00000000
 C      3   1   2     2.678553585517   120.21728391    18.85333798
 C      3   1   4     2.674705877845   121.65686515   180.55155629
 C      5   3   1     4.594747061765    91.03263939   179.55851658
 C      4   3   1     2.618665566277   120.70429494   180.38755740
 C      5   3   1     2.620663825602   120.89844256   179.52924654
 C      2   1   3     2.197722286319     0.44284669    43.71237976
 H      4   3   1     2.062694264664   118.37715070     0.38484123
 H      5   3   1     2.066124683876   119.39476731   359.56899750
 H      7   4   3     2.064009225023   119.85049921   180.02141403
 H      8   5   3     2.063443438966   119.75826210   179.93152411
 H      1   2   9     1.907980146762   120.89523843    28.83106187
 H      1   2   9     1.921965707812   119.11385440   197.31759720
 O     15   1   2     3.668628447454   164.14320497     0.93886481
 H     16  15   1     1.826542645355   127.95297308   102.19238501
 H     16  15   1     1.826811519645   126.64856852   295.51772455

---------------------
BASIS SET INFORMATION
---------------------
There are 4 groups of distinct atoms

 Group   1 Type N   : 7s4p1d contracted to 3s2p1d pattern {511/31/1}
 Group   2 Type C   : 7s4p1d contracted to 3s2p1d pattern {511/31/1}
 Group   3 Type H   : 4s1p contracted to 2s1p pattern {31/1}
 Group   4 Type O   : 7s4p1d contracted to 3s2p1d pattern {511/31/1}

Atom   0N    basis set group =>   1
Atom   1N    basis set group =>   1
Atom   2C    basis set group =>   2
Atom   3C    basis set group =>   2
Atom   4C    basis set group =>   2
Atom   5C    basis set group =>   2
Atom   6C    basis set group =>   2
Atom   7C    basis set group =>   2
Atom   8C    basis set group =>   2
Atom   9H    basis set group =>   3
Atom  10H    basis set group =>   3
Atom  11H    basis set group =>   3
Atom  12H    basis set group =>   3
Atom  13H    basis set group =>   3
Atom  14H    basis set group =>   3
Atom  15O    basis set group =>   4
Atom  16H    basis set group =>   3
Atom  17H    basis set group =>   3
---------------------------------
AUXILIARY/J BASIS SET INFORMATION
---------------------------------
There are 4 groups of distinct atoms

 Group   1 Type N   : 12s5p4d2f1g contracted to 6s4p3d1f1g pattern {711111/2111/211/2/1}
 Group   2 Type C   : 12s5p4d2f1g contracted to 6s4p3d1f1g pattern {711111/2111/211/2/1}
 Group   3 Type H   : 5s2p1d contracted to 3s1p1d pattern {311/2/1}
 Group   4 Type O   : 12s5p4d2f1g contracted to 6s4p3d1f1g pattern {711111/2111/211/2/1}

Atom   0N    basis set group =>   1
Atom   1N    basis set group =>   1
Atom   2C    basis set group =>   2
Atom   3C    basis set group =>   2
Atom   4C    basis set group =>   2
Atom   5C    basis set group =>   2
Atom   6C    basis set group =>   2
Atom   7C    basis set group =>   2
Atom   8C    basis set group =>   2
Atom   9H    basis set group =>   3
Atom  10H    basis set group =>   3
Atom  11H    basis set group =>   3
Atom  12H    basis set group =>   3
Atom  13H    basis set group =>   3
Atom  14H    basis set group =>   3
Atom  15O    basis set group =>   4
Atom  16H    basis set group =>   3
Atom  17H    basis set group =>   3


           ************************************************************
           *        Program running with 10 parallel MPI-processes    *
           *              working on a common directory               *
           ************************************************************
------------------------------------------------------------------------------
                             ORCA STARTUP CALCULATIONS
                           -- RI-GTO INTEGRALS CHOSEN --
------------------------------------------------------------------------------
------------------------------------------------------------------------------
                   ___                                                        
                  /   \      - P O W E R E D   B Y -                         
                 /     \                                                     
                 |  |  |   _    _      __       _____    __    __             
                 |  |  |  | |  | |    /  \     |  _  \  |  |  /  |          
                  \  \/   | |  | |   /    \    | | | |  |  | /  /          
                 / \  \   | |__| |  /  /\  \   | |_| |  |  |/  /          
                |  |  |   |  __  | /  /__\  \  |    /   |      \           
                |  |  |   | |  | | |   __   |  |    \   |  |\   \          
                \     /   | |  | | |  |  |  |  | |\  \  |  | \   \       
                 \___/    |_|  |_| |__|  |__|  |_| \__\ |__|  \__/        
                                                                              
                      - O R C A' S   B I G   F R I E N D -                    
                                      &                                       
                       - I N T E G R A L  F E E D E R -                       
                                                                              
 v1 FN, 2020, v2 2021, v3 2022-2024                                           
------------------------------------------------------------------------------


----------------------
SHARK INTEGRAL PACKAGE
----------------------

Number of atoms                             ...     18
Number of basis functions                   ...    180
Number of shells                            ...     84
Maximum angular momentum                    ...      2
Integral batch strategy                     ... SHARK/LIBINT Hybrid
RI-J (if used) integral strategy            ... SPLIT-RIJ (Revised 2003 algorithm where possible)
Printlevel                                  ...      1
Contraction scheme used                     ... SEGMENTED contraction
Prescreening option                         ... SCHWARTZ
   Thresh                                   ... 2.500e-11
   Tcut                                     ... 2.500e-12
   Tpresel                                  ... 2.500e-12 
Coulomb Range Separation                    ... NOT USED
Exchange Range Separation                   ... NOT USED
Multipole approximations                    ... NOT USED
Finite Nucleus Model                        ... NOT USED
CABS basis                                  ... NOT available
Auxiliary Coulomb fitting basis             ... AVAILABLE
   # of basis functions in Aux-J            ...    578
   # of shells in Aux-J                     ...    190
   Maximum angular momentum in Aux-J        ...      4
Auxiliary J/K fitting basis                 ... NOT available
Auxiliary Correlation fitting basis         ... NOT available
Auxiliary 'external' fitting basis          ... NOT available

Checking pre-screening integrals            ... done (  0.0 sec) Dimension = 84
Check shell pair data                       ... done (  0.0 sec)
Shell pair information
Shell pair cut-off parameter TPreSel        ...   2.5e-12
Total number of shell pairs                 ...      3570
Shell pairs after pre-screening             ...      3082
Total number of primitive shell pairs       ...     13034
Primitive shell pairs kept                  ...      7995
          la=0 lb=0:    948 shell pairs
          la=1 lb=0:   1121 shell pairs
          la=1 lb=1:    358 shell pairs
          la=2 lb=0:    378 shell pairs
          la=2 lb=1:    233 shell pairs
          la=2 lb=2:     44 shell pairs

Calculating one electron integrals          ... done (  0.0 sec)
Calculating RI/J V-Matrix + Cholesky decomp.... done (  0.0 sec)
Calculating Nuclear repulsion               ... done (  0.0 sec) ENN=    454.482484024336 Eh

Diagonalization of the overlap matrix:
Smallest eigenvalue                        ... 2.746e-04
Time for diagonalization                   ...    0.003 sec
Threshold for overlap eigenvalues          ... 1.000e-07
Number of eigenvalues below threshold      ... 0
Time for construction of square roots      ...    0.002 sec
Total time needed                          ...    0.010 sec

-------------------
DFT GRID GENERATION
-------------------

General Integration Accuracy     IntAcc      ... 4.388
Radial Grid Type                 RadialGrid  ... OptM3 with GC (2021)
Angular Grid (max. ang.)         AngularGrid ... 4 (Lebedev-302)
Angular grid pruning method      GridPruning ... 4 (adaptive)
Weight generation scheme         WeightScheme... mBecke (2022)
Basis function cutoff            BFCut       ... 1.0000e-11
Integration weight cutoff        WCut        ... 1.0000e-14
Partially contracted basis set               ... off
Rotationally invariant grid construction     ... off
Angular grids for H and He will be reduced by one unit

Total number of grid points                  ...    86168
Total number of batches                      ...     1356
Average number of points per batch           ...       63
Average number of grid points per atom       ...     4787

--------------------
COSX GRID GENERATION
--------------------

GRIDX 1
-------
General Integration Accuracy     IntAcc      ... 3.816
Radial Grid Type                 RadialGrid  ... OptM3 with GC (2021)
Angular Grid (max. ang.)         AngularGrid ... 1 (Lebedev-50)
Angular grid pruning method      GridPruning ... 4 (adaptive)
Weight generation scheme         WeightScheme... mBecke (2022)
Basis function cutoff            BFCut       ... 1.0000e-11
Integration weight cutoff        WCut        ... 1.0000e-14
Partially contracted basis set               ... on
Rotationally invariant grid construction     ... off
Angular grids for H and He will be reduced by one unit

Total number of grid points                  ...    10992
Total number of batches                      ...       96
Average number of points per batch           ...      114
Average number of grid points per atom       ...      611
UseSFitting                                  ... on

GRIDX 2
-------
General Integration Accuracy     IntAcc      ... 4.020
Radial Grid Type                 RadialGrid  ... OptM3 with GC (2021)
Angular Grid (max. ang.)         AngularGrid ... 2 (Lebedev-110)
Angular grid pruning method      GridPruning ... 4 (adaptive)
Weight generation scheme         WeightScheme... mBecke (2022)
Basis function cutoff            BFCut       ... 1.0000e-11
Integration weight cutoff        WCut        ... 1.0000e-14
Partially contracted basis set               ... on
Rotationally invariant grid construction     ... off
Angular grids for H and He will be reduced by one unit

Total number of grid points                  ...    24171
Total number of batches                      ...      196
Average number of points per batch           ...      123
Average number of grid points per atom       ...     1343
UseSFitting                                  ... on

GRIDX 3
-------
General Integration Accuracy     IntAcc      ... 4.338
Radial Grid Type                 RadialGrid  ... OptM3 with GC (2021)
Angular Grid (max. ang.)         AngularGrid ... 3 (Lebedev-194)
Angular grid pruning method      GridPruning ... 4 (adaptive)
Weight generation scheme         WeightScheme... mBecke (2022)
Basis function cutoff            BFCut       ... 1.0000e-11
Integration weight cutoff        WCut        ... 1.0000e-14
Partially contracted basis set               ... on
Rotationally invariant grid construction     ... off
Angular grids for H and He will be reduced by one unit

Total number of grid points                  ...    53151
Total number of batches                      ...      425
Average number of points per batch           ...      125
Average number of grid points per atom       ...     2953
UseSFitting                                  ... on
Initializing property integral containers    ... done (  0.0 sec)

SHARK setup successfully completed in   0.9 seconds

Maximum memory used throughout the entire STARTUP-calculation: 22.8 MB


           ************************************************************
           *        Program running with 10 parallel MPI-processes    *
           *              working on a common directory               *
           ************************************************************
-------------------------------------------------------------------------------
                                 ORCA GUESS
                   Start orbitals & Density for SCF / CASSCF
-------------------------------------------------------------------------------

------------
SCF SETTINGS
------------
Hamiltonian:
 Density Functional     Method          .... DFT(GTOs)
 Exchange Functional    Exchange        .... B88
   X-Alpha parameter    XAlpha          ....  0.666667
   Becke's b parameter  XBeta           ....  0.004200
 Correlation Functional Correlation     .... LYP
 LDA part of GGA corr.  LDAOpt          .... VWN-5
 Gradients option       PostSCFGGA      .... off
 Hybrid DFT is turned on
   Fraction HF Exchange ScalHFX         ....  0.200000
   Scaling of DF-GGA-X  ScalDFX         ....  0.720000
   Scaling of DF-GGA-C  ScalDFC         ....  0.810000
   Scaling of DF-LDA-C  ScalLDAC        ....  1.000000
   Perturbative correction              ....  0.000000
   NL short-range parameter             ....  4.800000
 RI-approximation to the Coulomb term is turned on
   Number of AuxJ basis functions       .... 578
   RIJ-COSX (HFX calculated with COS-X)).... on


General Settings:
 Integral files         IntName         .... 4nitroaniline_water_2
 Hartree-Fock type      HFTyp           .... RHF
 Total Charge           Charge          ....    0
 Multiplicity           Mult            ....    1
 Number of Electrons    NEL             ....   72
 Basis Dimension        Dim             ....  180
 Nuclear Repulsion      ENuc            ....    454.4824840243 Eh

Convergence Acceleration:
 AO-DIIS                CNVDIIS         .... on
   Start iteration      DIISMaxIt       ....    12
   Startup error        DIISStart       ....  0.200000
   # of expansion vecs  DIISMaxEq       ....     5
   Bias factor          DIISBfac        ....   1.050
   Max. coefficient     DIISMaxC        ....  10.000
 MO-DIIS                CNVKDIIS        .... off
 Trust-Rad. Augm. Hess. CNVTRAH         .... auto
   Auto Start mean grad. ratio tolernc. ....  1.125000
   Auto Start start iteration           ....    50
   Auto Start num. interpolation iter.  ....    10
   Max. Number of Micro iterations      ....    24
   Max. Number of Macro iterations      .... Maxiter - #DIIS iter
   Number of Davidson start vectors     ....     2
   Converg. threshold    (grad. norm)   ....   1.000e-05
   Grad. Scal. Fac. for Micro threshold ....   0.100
   Minimum threshold for Micro iter.    ....   1.000e-02
   NR start threshold (gradient norm)   ....   1.000e-04
   Initial trust radius                 ....   0.400
   Minimum AH scaling param. (alpha)    ....   1.000
   Maximum AH scaling param. (alpha)    .... 1000.000
   Quad. conv. algorithm                .... NR
   White noise on init. David. guess    .... on
   Maximum white noise                  ....   0.010
   Pseudo random numbers                .... off
   Inactive MOs                         .... canonical
   Orbital update algorithm             .... Taylor
   Preconditioner                       .... Diag
   Full preconditioner red. dimension   ....   250
 SOSCF                  CNVSOSCF        .... on
   Start iteration      SOSCFMaxIt      ....   150
   Startup grad/error   SOSCFStart      ....  0.003300
   Hessian update       SOSCFHessUp     .... L-BFGS
 Level Shifting         CNVShift        .... on
   Level shift para.    LevelShift      ....    0.2500
   Turn off err/grad.   ShiftErr        ....    0.0010
 Zerner damping         CNVZerner       .... off
 Static damping         CNVDamp         .... on
   Fraction old density DampFac         ....    0.7000
   Max. Damping (<1)    DampMax         ....    0.9800
   Min. Damping (>=0)   DampMin         ....    0.0000
   Turn off err/grad.   DampErr         ....    0.1000

SCF Procedure:
 Maximum # iterations   MaxIter         ....   125
 SCF integral mode      SCFMode         .... Direct
   Integral package                     .... SHARK and LIBINT hybrid scheme
 Reset frequency        DirectResetFreq ....    20
 Integral Threshold     Thresh          ....  2.500e-11 Eh
 Primitive CutOff       TCut            ....  2.500e-12 Eh

Convergence Tolerance:
 Convergence Check Mode ConvCheckMode   .... Total+1el-Energy
 Convergence forced     ConvForced      .... 0
 Energy Change          TolE            ....  1.000e-08 Eh
 1-El. energy change                    ....  1.000e-05 Eh
 Orbital Gradient       TolG            ....  1.000e-05
 Orbital Rotation angle TolX            ....  1.000e-05
 DIIS Error             TolErr          ....  5.000e-07

------------------------------
INITIAL GUESS: MODEL POTENTIAL
------------------------------
Loading Hartree-Fock densities                     ... done
Calculating cut-offs                               ... done
Initializing the effective Hamiltonian             ... done
Setting up the integral package (SHARK)            ... done
Starting the Coulomb interaction                   ... done (   0.0 sec)
Making the grid                                    ... done (   0.1 sec)
Mapping shells                                     ... done
Starting the XC term evaluation                    ... done (   0.0 sec)
  promolecular density results
     # of electrons  =     71.997008841
     EX              =    -59.640377695
     EC              =     -2.427357434
     EX+EC           =    -62.067735129
Transforming the Hamiltonian                       ... done (   0.0 sec)
Diagonalizing the Hamiltonian                      ... done (   0.0 sec)
Back transforming the eigenvectors                 ... done (   0.0 sec)
Now organizing SCF variables                       ... done
                      ------------------
                      INITIAL GUESS DONE (   0.2 sec)
                      ------------------
             **** ENERGY FILE WAS UPDATED (4nitroaniline_water_2.en.tmp) ****
Finished Guess after   0.5 sec
Maximum memory used throughout the entire GUESS-calculation: 13.0 MB


           ************************************************************
           *        Program running with 10 parallel MPI-processes    *
           *              working on a common directory               *
           ************************************************************

-------------------------------------------------------------------------------------------
                                      ORCA LEAN-SCF
                              memory conserving SCF solver
-------------------------------------------------------------------------------------------

----------------------------------------D-I-I-S--------------------------------------------
Iteration    Energy (Eh)           Delta-E    RMSDP     MaxDP     DIISErr   Damp  Time(sec)
-------------------------------------------------------------------------------------------
               ***  Starting incremental Fock matrix formation  ***
    1    -455.3679004251595188     0.00e+00  4.05e-03  9.10e-02  2.82e-01  0.700   0.6
    2    -455.5181849883775840    -1.50e-01  2.70e-03  4.98e-02  1.17e-01  0.700   0.4
                               ***Turning on AO-DIIS***
    3    -455.5733070604895829    -5.51e-02  1.27e-03  2.57e-02  3.78e-02  0.700   0.3
    4    -455.6081235319097686    -3.48e-02  2.14e-03  4.02e-02  1.86e-02  0.000   0.3
    5    -455.6842815065447212    -7.62e-02  3.78e-04  9.78e-03  9.60e-03  0.000   0.3
                              *** Initializing SOSCF ***
---------------------------------------S-O-S-C-F--------------------------------------
Iteration    Energy (Eh)           Delta-E    RMSDP     MaxDP     MaxGrad    Time(sec)
--------------------------------------------------------------------------------------
    6    -455.6848551621928891    -5.74e-04  1.22e-04  2.72e-03  1.44e-03     0.3
               *** Restarting incremental Fock matrix formation ***
    7    -455.6849484763753253    -9.33e-05  7.08e-05  1.38e-03  2.79e-04     0.5
    8    -455.6849483932580824     8.31e-08  3.16e-05  7.36e-04  4.20e-04     0.4
    9    -455.6849510591570152    -2.67e-06  1.98e-05  4.12e-04  1.44e-04     0.4
   10    -455.6849508603028198     1.99e-07  1.04e-05  3.30e-04  2.14e-04     0.4
   11    -455.6849513926238160    -5.32e-07  8.12e-06  1.87e-04  7.28e-05     0.4
   12    -455.6849513369135138     5.57e-08  5.22e-06  9.21e-05  6.50e-05     0.4
   13    -455.6849514547742501    -1.18e-07  1.46e-06  3.40e-05  8.12e-06     0.4
   14    -455.6849514566603148    -1.89e-09  7.31e-07  1.71e-05  1.07e-05     0.3
                 **** Energy Check signals convergence ****

               *****************************************************
               *                     SUCCESS                       *
               *           SCF CONVERGED AFTER  14 CYCLES          *
               *****************************************************

Recomputing exchange energy using gridx3       ... done (    0.702 sec)
Old exchange energy                            :    -12.086302781 Eh
New exchange energy                            :    -12.086327112 Eh
Exchange energy change after final integration :     -0.000024330 Eh
Total energy after final integration           :   -455.684975787 Eh
             **** ENERGY FILE WAS UPDATED (4nitroaniline_water_2.en.tmp) ****

----------------
TOTAL SCF ENERGY
----------------

Total Energy       :       -455.68497578701312 Eh          -12399.81859 eV

Components:
Nuclear Repulsion  :        454.48248402433626 Eh           12367.09712 eV
Electronic Energy  :       -910.16743548099657 Eh          -24766.91505 eV
One Electron Energy:      -1518.47139024280796 Eh          -41319.70718 eV
Two Electron Energy:        608.30395476181138 Eh           16552.79214 eV

Virial components:
Potential Energy   :       -906.97017632034112 Eh          -24679.91320 eV
Kinetic Energy     :        451.28520053332795 Eh           12280.09461 eV
Virial Ratio       :          2.00974943394662

DFT components:
N(Alpha)           :       35.999993743308 electrons
N(Beta)            :       35.999993743308 electrons
N(Total)           :       71.999987486616 electrons
E(X)               :      -48.050540531420 Eh       
E(C)               :       -2.873466487063 Eh       
E(XC)              :      -50.924007018484 Eh       

---------------
SCF CONVERGENCE
---------------

  Last Energy change         ...    1.8861e-09  Tolerance :   1.0000e-08
  Last MAX-Density change    ...    1.7117e-05  Tolerance :   1.0000e-07
  Last RMS-Density change    ...    7.3104e-07  Tolerance :   5.0000e-09
  Last DIIS Error            ...    1.4429e-03  Tolerance :   5.0000e-07
  Last Orbital Gradient      ...    1.0700e-05  Tolerance :   1.0000e-05
  Last Orbital Rotation      ...    1.3789e-05  Tolerance :   1.0000e-05


----------------
ORBITAL ENERGIES
----------------

  NO   OCC          E(Eh)            E(eV) 
   0   2.0000     -19.173659      -521.7418 
   1   2.0000     -14.333140      -390.0246 
   2   2.0000     -14.297102      -389.0439 
   3   2.0000     -10.236161      -278.5401 
   4   2.0000     -10.202758      -277.6312 
   5   2.0000     -10.199790      -277.5504 
   6   2.0000     -10.197504      -277.4882 
   7   2.0000     -10.197005      -277.4746 
   8   2.0000     -10.185182      -277.1529 
   9   2.0000     -10.182655      -277.0841 
  10   2.0000      -1.030646       -28.0453 
  11   2.0000      -0.912846       -24.8398 
  12   2.0000      -0.870129       -23.6774 
  13   2.0000      -0.833419       -22.6785 
  14   2.0000      -0.741732       -20.1836 
  15   2.0000      -0.735624       -20.0173 
  16   2.0000      -0.621976       -16.9248 
  17   2.0000      -0.614697       -16.7267 
  18   2.0000      -0.562995       -15.3199 
  19   2.0000      -0.540723       -14.7138 
  20   2.0000      -0.522784       -14.2257 
  21   2.0000      -0.516215       -14.0469 
  22   2.0000      -0.448147       -12.1947 
  23   2.0000      -0.437969       -11.9177 
  24   2.0000      -0.423426       -11.5220 
  25   2.0000      -0.417057       -11.3487 
  26   2.0000      -0.395299       -10.7566 
  27   2.0000      -0.391078       -10.6418 
  28   2.0000      -0.353239        -9.6121 
  29   2.0000      -0.351503        -9.5649 
  30   2.0000      -0.340974        -9.2784 
  31   2.0000      -0.331967        -9.0333 
  32   2.0000      -0.308108        -8.3841 
  33   2.0000      -0.294228        -8.0063 
  34   2.0000      -0.259242        -7.0543 
  35   2.0000      -0.201636        -5.4868 
  36   0.0000      -0.016764        -0.4562 
  37   0.0000      -0.008406        -0.2287 
  38   0.0000       0.009328         0.2538 
  39   0.0000       0.058702         1.5974 
  40   0.0000       0.066385         1.8064 
  41   0.0000       0.076611         2.0847 
  42   0.0000       0.091357         2.4859 
  43   0.0000       0.105302         2.8654 
  44   0.0000       0.112370         3.0577 
  45   0.0000       0.135963         3.6998 
  46   0.0000       0.169924         4.6239 
*Only the first 10 virtual orbitals were printed.

                    ********************************
                    * MULLIKEN POPULATION ANALYSIS *
                    ********************************

-----------------------
MULLIKEN ATOMIC CHARGES
-----------------------
   0 N :   -0.062222
   1 N :    0.030626
   2 C :    0.085395
   3 C :   -0.030138
   4 C :   -0.039866
   5 C :   -0.104337
   6 C :    0.043503
   7 C :    0.038833
   8 C :   -0.126348
   9 H :   -0.064426
  10 H :   -0.042013
  11 H :   -0.019962
  12 H :   -0.016476
  13 H :    0.105378
  14 H :    0.105648
  15 O :   -0.247026
  16 H :    0.170525
  17 H :    0.172904
Sum of atomic charges:    0.0000000

--------------------------------
MULLIKEN REDUCED ORBITAL CHARGES
--------------------------------
  0 N s       :     3.276383  s :     3.276383
      pz      :     1.501810  p :     3.770914
      px      :     1.061145
      py      :     1.207960
      dz2     :     0.001224  d :     0.014925
      dxz     :     0.003563
      dyz     :     0.001476
      dx2y2   :     0.004045
      dxy     :     0.004617

  1 N s       :     3.532803  s :     3.532803
      pz      :     1.075141  p :     3.405402
      px      :     1.279112
      py      :     1.051149
      dz2     :     0.002956  d :     0.031168
      dxz     :     0.009551
      dyz     :     0.000115
      dx2y2   :     0.008811
      dxy     :     0.009735

  2 C s       :     2.982733  s :     2.982733
      pz      :     0.953750  p :     2.868862
      px      :     0.907450
      py      :     1.007662
      dz2     :     0.007188  d :     0.063010
      dxz     :     0.016499
      dyz     :     0.005958
      dx2y2   :     0.016900
      dxy     :     0.016463

  3 C s       :     3.231253  s :     3.231253
      pz      :     1.003494  p :     2.766939
      px      :     0.842713
      py      :     0.920733
      dz2     :     0.003050  d :     0.031946
      dxz     :     0.006896
      dyz     :     0.003956
      dx2y2   :     0.007915
      dxy     :     0.010129

  4 C s       :     3.225745  s :     3.225745
      pz      :     1.013205  p :     2.782034
      px      :     0.882503
      py      :     0.886326
      dz2     :     0.003263  d :     0.032087
      dxz     :     0.007095
      dyz     :     0.003777
      dx2y2   :     0.007783
      dxy     :     0.010170

  5 C s       :     3.041867  s :     3.041867
      pz      :     1.067283  p :     3.019896
      px      :     0.950980
      py      :     1.001634
      dz2     :     0.005925  d :     0.042573
      dxz     :     0.007227
      dyz     :     0.005849
      dx2y2   :     0.012769
      dxy     :     0.010804

  6 C s       :     3.219314  s :     3.219314
      pz      :     0.928738  p :     2.701137
      px      :     0.903720
      py      :     0.868679
      dz2     :     0.003996  d :     0.036046
      dxz     :     0.008614
      dyz     :     0.003973
      dx2y2   :     0.008645
      dxy     :     0.010818

  7 C s       :     3.220928  s :     3.220928
      pz      :     0.921294  p :     2.704204
      px      :     0.892296
      py      :     0.890614
      dz2     :     0.003540  d :     0.036035
      dxz     :     0.008413
      dyz     :     0.004501
      dx2y2   :     0.008962
      dxy     :     0.010618

  8 C s       :     3.115326  s :     3.115326
      pz      :     0.961280  p :     2.964239
      px      :     1.036265
      py      :     0.966694
      dz2     :     0.003358  d :     0.046782
      dxz     :     0.017652
      dyz     :     0.000295
      dx2y2   :     0.009851
      dxy     :     0.015625

  9 H s       :     1.040848  s :     1.040848
      pz      :     0.007250  p :     0.023578
      px      :     0.007297
      py      :     0.009031

 10 H s       :     1.019015  s :     1.019015
      pz      :     0.006914  p :     0.022998
      px      :     0.005281
      py      :     0.010804

 11 H s       :     0.997164  s :     0.997164
      pz      :     0.006322  p :     0.022798
      px      :     0.005773
      py      :     0.010703

 12 H s       :     0.993632  s :     0.993632
      pz      :     0.006871  p :     0.022843
      px      :     0.006937
      py      :     0.009035

 13 H s       :     0.849709  s :     0.849709
      pz      :     0.014103  p :     0.044912
      px      :     0.011130
      py      :     0.019679

 14 H s       :     0.846813  s :     0.846813
      pz      :     0.017352  p :     0.047539
      px      :     0.012349
      py      :     0.017838

 15 O s       :     3.673556  s :     3.673556
      pz      :     1.325070  p :     4.563791
      px      :     1.788180
      py      :     1.450541
      dz2     :     0.004433  d :     0.009679
      dxz     :     0.000551
      dyz     :     0.000987
      dx2y2   :     0.001759
      dxy     :     0.001949

 16 H s       :     0.758842  s :     0.758842
      pz      :     0.018106  p :     0.070633
      px      :     0.022164
      py      :     0.030363

 17 H s       :     0.756539  s :     0.756539
      pz      :     0.034081  p :     0.070557
      px      :     0.020270
      py      :     0.016206



                     *******************************
                     * LOEWDIN POPULATION ANALYSIS *
                     *******************************

----------------------
LOEWDIN ATOMIC CHARGES
----------------------
   0 N :   -0.008109
   1 N :   -0.097521
   2 C :    0.045536
   3 C :   -0.069245
   4 C :   -0.072056
   5 C :   -0.111542
   6 C :    0.012198
   7 C :    0.014700
   8 C :   -0.032428
   9 H :    0.015079
  10 H :    0.022851
  11 H :    0.033425
  12 H :    0.034978
  13 H :    0.071364
  14 H :    0.057268
  15 O :   -0.098269
  16 H :    0.091013
  17 H :    0.090759

-------------------------------
LOEWDIN REDUCED ORBITAL CHARGES
-------------------------------
  0 N s       :     3.022827  s :     3.022827
      pz      :     1.495683  p :     3.944249
      px      :     1.153786
      py      :     1.294780
      dz2     :     0.002899  d :     0.041033
      dxz     :     0.008851
      dyz     :     0.003587
      dx2y2   :     0.011982
      dxy     :     0.013713

  1 N s       :     3.426355  s :     3.426355
      pz      :     1.085119  p :     3.618553
      px      :     1.468209
      py      :     1.065225
      dz2     :     0.006350  d :     0.052613
      dxz     :     0.013425
      dyz     :     0.000161
      dx2y2   :     0.018753
      dxy     :     0.013923

  2 C s       :     2.836501  s :     2.836501
      pz      :     0.960448  p :     2.968684
      px      :     0.967059
      py      :     1.041177
      dz2     :     0.015561  d :     0.149280
      dxz     :     0.036460
      dyz     :     0.014710
      dx2y2   :     0.042428
      dxy     :     0.040121

  3 C s       :     2.858905  s :     2.858905
      pz      :     1.041222  p :     3.124729
      px      :     1.050789
      py      :     1.032718
      dz2     :     0.007104  d :     0.085611
      dxz     :     0.016822
      dyz     :     0.009909
      dx2y2   :     0.023477
      dxy     :     0.028299

  4 C s       :     2.858364  s :     2.858364
      pz      :     1.045812  p :     3.127780
      px      :     1.052419
      py      :     1.029550
      dz2     :     0.007487  d :     0.085912
      dxz     :     0.017674
      dyz     :     0.009402
      dx2y2   :     0.023403
      dxy     :     0.027946

  5 C s       :     2.837421  s :     2.837421
      pz      :     1.075216  p :     3.162040
      px      :     1.012124
      py      :     1.074700
      dz2     :     0.013576  d :     0.112081
      dxz     :     0.017866
      dyz     :     0.015321
      dx2y2   :     0.035702
      dxy     :     0.029616

  6 C s       :     2.860300  s :     2.860300
      pz      :     0.968934  p :     3.034974
      px      :     1.056728
      py      :     1.009312
      dz2     :     0.009052  d :     0.092528
      dxz     :     0.020737
      dyz     :     0.009556
      dx2y2   :     0.024302
      dxy     :     0.028881

  7 C s       :     2.860316  s :     2.860316
      pz      :     0.967625  p :     3.032723
      px      :     1.055114
      py      :     1.009984
      dz2     :     0.008093  d :     0.092261
      dxz     :     0.019899
      dyz     :     0.010805
      dx2y2   :     0.024872
      dxy     :     0.028592

  8 C s       :     2.910785  s :     2.910785
      pz      :     0.931774  p :     3.009853
      px      :     1.151915
      py      :     0.926164
      dz2     :     0.010206  d :     0.111790
      dxz     :     0.037075
      dyz     :     0.000550
      dx2y2   :     0.030320
      dxy     :     0.033640

  9 H s       :     0.914020  s :     0.914020
      pz      :     0.022155  p :     0.070902
      px      :     0.021627
      py      :     0.027119

 10 H s       :     0.909155  s :     0.909155
      pz      :     0.020806  p :     0.067994
      px      :     0.015858
      py      :     0.031330

 11 H s       :     0.899917  s :     0.899917
      pz      :     0.018697  p :     0.066658
      px      :     0.016809
      py      :     0.031153

 12 H s       :     0.898234  s :     0.898234
      pz      :     0.020198  p :     0.066787
      px      :     0.019956
      py      :     0.026633

 13 H s       :     0.805553  s :     0.805553
      pz      :     0.041026  p :     0.123083
      px      :     0.026904
      py      :     0.055153

 14 H s       :     0.802711  s :     0.802711
      pz      :     0.055208  p :     0.140022
      px      :     0.032197
      py      :     0.052616

 15 O s       :     3.417852  s :     3.417852
      pz      :     1.391951  p :     4.661792
      px      :     1.756558
      py      :     1.513284
      dz2     :     0.009503  d :     0.018625
      dxz     :     0.001171
      dyz     :     0.001390
      dx2y2   :     0.002959
      dxy     :     0.003603

 16 H s       :     0.734949  s :     0.734949
      pz      :     0.033575  p :     0.174038
      px      :     0.057088
      py      :     0.083375

 17 H s       :     0.734459  s :     0.734459
      pz      :     0.088064  p :     0.174783
      px      :     0.050803
      py      :     0.035916



                      *****************************
                      * MAYER POPULATION ANALYSIS *
                      *****************************

  NA   - Mulliken gross atomic population
  ZA   - Total nuclear charge
  QA   - Mulliken gross atomic charge
  VA   - Mayer's total valence
  BVA  - Mayer's bonded valence
  FA   - Mayer's free valence

  ATOM       NA         ZA         QA         VA         BVA        FA
  0 N      7.0622     7.0000    -0.0622     3.2410     3.2410    -0.0000
  1 N      6.9694     7.0000     0.0306     3.1321     3.1321     0.0000
  2 C      5.9146     6.0000     0.0854     4.0613     4.0613     0.0000
  3 C      6.0301     6.0000    -0.0301     3.7541     3.7541     0.0000
  4 C      6.0399     6.0000    -0.0399     3.7744     3.7744     0.0000
  5 C      6.1043     6.0000    -0.1043     3.8949     3.8949     0.0000
  6 C      5.9565     6.0000     0.0435     3.8595     3.8595     0.0000
  7 C      5.9612     6.0000     0.0388     3.8862     3.8862    -0.0000
  8 C      6.1263     6.0000    -0.1263     4.0549     4.0549     0.0000
  9 H      1.0644     1.0000    -0.0644     1.0438     1.0438    -0.0000
 10 H      1.0420     1.0000    -0.0420     0.9861     0.9861    -0.0000
 11 H      1.0200     1.0000    -0.0200     0.9845     0.9845    -0.0000
 12 H      1.0165     1.0000    -0.0165     0.9844     0.9844    -0.0000
 13 H      0.8946     1.0000     0.1054     1.0018     1.0018    -0.0000
 14 H      0.8944     1.0000     0.1056     1.0725     1.0725    -0.0000
 15 O      8.2470     8.0000    -0.2470     2.1553     2.1553    -0.0000
 16 H      0.8295     1.0000     0.1705     1.0040     1.0040    -0.0000
 17 H      0.8271     1.0000     0.1729     1.0022     1.0022    -0.0000

  Mayer bond orders larger than 0.100000
B(  0-N ,  2-C ) :   1.3115 B(  0-N , 13-H ) :   0.9464 B(  0-N , 14-H ) :   0.9053 
B(  1-N ,  8-C ) :   2.9976 B(  2-C ,  3-C ) :   1.2864 B(  2-C ,  4-C ) :   1.2791 
B(  3-C ,  6-C ) :   1.4074 B(  3-C ,  9-H ) :   0.9736 B(  4-C ,  7-C ) :   1.4161 
B(  4-C , 10-H ) :   0.9847 B(  5-C ,  6-C ) :   1.3391 B(  5-C ,  7-C ) :   1.3448 
B(  5-C ,  8-C ) :   1.0851 B(  6-C , 11-H ) :   0.9847 B(  7-C , 12-H ) :   0.9840 
B( 14-H , 15-O ) :   0.1136 B( 15-O , 16-H ) :   0.9907 B( 15-O , 17-H ) :   0.9876 


-------
TIMINGS
-------

Total SCF time: 0 days 0 hours 0 min 6 sec 

Total time                  ....       6.691 sec
Sum of individual times     ....       6.579 sec  ( 98.3%)

SCF preparation             ....       0.346 sec  (  5.2%)
Fock matrix formation       ....       5.840 sec  ( 87.3%)
  Startup                   ....       0.046 sec  (  0.8% of F)
  Split-RI-J                ....       0.524 sec  (  9.0% of F)
  Chain of spheres X        ....       3.902 sec  ( 66.8% of F)
  XC integration            ....       1.248 sec  ( 21.4% of F)
    XC Preparation          ....       0.000 sec  (  0.0% of XC)
    Basis function eval.    ....       0.379 sec  ( 30.3% of XC)
    Density eval.           ....       0.147 sec  ( 11.8% of XC)
    XC-Functional eval.     ....       0.100 sec  (  8.0% of XC)
    XC-Potential eval.      ....       0.210 sec  ( 16.8% of XC)
Diagonalization             ....       0.000 sec  (  0.0%)
Density matrix formation    ....       0.110 sec  (  1.6%)
Total Energy calculation    ....       0.038 sec  (  0.6%)
Population analysis         ....       0.016 sec  (  0.2%)
Orbital Transformation      ....       0.022 sec  (  0.3%)
Orbital Orthonormalization  ....       0.000 sec  (  0.0%)
DIIS solution               ....       0.116 sec  (  1.7%)
SOSCF solution              ....       0.092 sec  (  1.4%)
Finished LeanSCF after   6.7 sec

Maximum memory used throughout the entire LEANSCF-calculation: 18.5 MB


-------------------------------------------------------------------------------
                          DFT DISPERSION CORRECTION                            
                                                                               
                              DFTD3 V3.1  Rev 1                                
                          USING Becke-Johnson damping                          
-------------------------------------------------------------------------------
The B3LYP functional is recognized
Active option DFTDOPT                   ...         4   

molecular C6(AA) [au] = 3763.939086 


            DFT-D V3
 parameters
 s6 scaling factor         :     1.0000 
 a1 scaling factor         :     0.3981 
 s8 scaling factor         :     1.9889 
 a2 scaling factor         :     4.4211 
 ad hoc parameters k1-k3   :    16.0000     1.3333    -4.0000 

 Edisp/kcal,au: -18.865523187703  -0.030064121667 
 E6   /kcal   :  -8.827072831 
 E8   /kcal   : -10.038450357 
 % E8         :  53.210559054 

-------------------------   ----------------
Dispersion correction           -0.030064122
-------------------------   ----------------


-------------------------   --------------------
FINAL SINGLE POINT ENERGY      -455.715039908680
-------------------------   --------------------



           ************************************************************
           *        Program running with 10 parallel MPI-processes    *
           *              working on a common directory               *
           ************************************************************
------------------------------------------------------------------------------
                         ORCA SCF GRADIENT CALCULATION
------------------------------------------------------------------------------

Nuc. rep. gradient        (SHARK) ... done (  0.0 sec)
HCore & Overlap gradient  (SHARK) ... done (  0.0 sec)
Split-RIJ-J gradient      (SHARK) ... done (  0.2 sec)
COSX-gradient                     ... done (  2.2 sec)
XC gradient                       ... done (  0.4 sec)
Dispersion correction             ... done (  0.0 sec)

-------------------
DISPERSION GRADIENT
-------------------

   1   N   :    0.000516559    0.000217415   -0.000110377
   2   N   :   -0.000702787   -0.000069784   -0.000032515
   3   C   :    0.000372980    0.000154996   -0.000079420
   4   C   :    0.000002424   -0.000356738    0.000180572
   5   C   :    0.000132347    0.000480042   -0.000288753
   6   C   :   -0.000408095   -0.000036346   -0.000024481
   7   C   :   -0.000140310   -0.000449401    0.000253782
   8   C   :   -0.000156489    0.000440243   -0.000291409
   9   C   :   -0.000756249   -0.000075541   -0.000036650
  10   H   :    0.000015360   -0.000253075    0.000135121
  11   H   :    0.000084475    0.000298557   -0.000176499
  12   H   :   -0.000064443   -0.000309766    0.000182051
  13   H   :   -0.000094793    0.000295214   -0.000193064
  14   H   :    0.000269699    0.000143462   -0.000057439
  15   H   :    0.000262764    0.000027509    0.000014222
  16   O   :    0.000369352   -0.000253807    0.000261658
  17   H   :    0.000151660   -0.000143874    0.000075568
  18   H   :    0.000145545   -0.000109107    0.000187635

Difference to translation invariance:
           :   -0.0000000000   -0.0000000000   -0.0000000000

Difference to rotation invariance:
           :   -0.0000000000    0.0000000000    0.0000000000

Norm of the Dispersion gradient    ...    0.0019630924
RMS gradient                       ...    0.0002671430
MAX gradient                       ...    0.0007562486

------------------
CARTESIAN GRADIENT
------------------

   1   N   :    0.001875078    0.000478325    0.000478980
   2   N   :    0.000080389    0.000041878    0.000179773
   3   C   :   -0.003018453   -0.000401616   -0.000221583
   4   C   :    0.000744559   -0.000322290    0.000081022
   5   C   :    0.000105376    0.000135113    0.000212458
   6   C   :    0.000426392   -0.000252704    0.000371870
   7   C   :   -0.000442075    0.000378689   -0.000196105
   8   C   :   -0.000210228    0.000296603   -0.000201347
   9   C   :   -0.000180574   -0.000190001   -0.000259504
  10   H   :    0.000132768    0.000056849    0.000003049
  11   H   :   -0.000134262    0.000016705   -0.000113660
  12   H   :   -0.000088544   -0.000000941   -0.000023924
  13   H   :    0.000160124    0.000071441   -0.000006640
  14   H   :    0.000611501   -0.000298876   -0.000299540
  15   H   :    0.000144692    0.000160463   -0.000169042
  16   O   :   -0.001235471    0.000186957   -0.000545486
  17   H   :    0.000420862    0.000527272    0.000951450
  18   H   :    0.000607866   -0.000883866   -0.000241772

Difference to translation invariance:
           :   -0.0000000001    0.0000000001   -0.0000000000

Difference to rotation invariance:
           :    0.0000001941   -0.0000808468   -0.0000417514

Norm of the Cartesian gradient     ...    0.0045048237
RMS gradient                       ...    0.0006130289
MAX gradient                       ...    0.0030184530

-------
TIMINGS
-------

Total SCF gradient time     ....        2.940 sec

Densities                   ....       0.000 sec  (  0.0%)
One electron gradient       ....       0.023 sec  (  0.8%)
RI-J Coulomb gradient       ....       0.189 sec  (  6.4%)
COSX gradient               ....       2.245 sec  ( 76.4%)
XC gradient                 ....       0.438 sec  ( 14.9%)

Maximum memory used throughout the entire SCFGRAD-calculation: 30.0 MB
------------------------------------------------------------------------------
                         ORCA GEOMETRY RELAXATION STEP
------------------------------------------------------------------------------

Reading the OPT-File                    .... done
Getting information on internals        .... done
Copying old internal coords+grads       .... done
Making the new internal coordinates     .... (2022 redundants) done
Validating the new internal coordinates .... (2022 redundants) done
Calculating the B-matrix                .... done
Calculating the G,G- and P matrices     .... done
Transforming gradient to internals      .... done
Projecting the internal gradient        .... done
Number of atoms                         ....  18
Number of internal coordinates          ....  77
Current Energy                          ....  -455.715039909 Eh
Current gradient norm                   ....     0.004504824 Eh/bohr
Maximum allowed component of the step   ....  0.300
Current trust radius                    ....  0.300
Evaluating the initial hessian          ....  (Almloef) done
Projecting the Hessian                  .... done
Forming the augmented Hessian           .... done
Diagonalizing the augmented Hessian     .... done
Last element of RFO vector              ....  0.931693857
Lowest eigenvalues of augmented Hessian:
 -0.000441671  0.001841156  0.005128528  0.014136439  0.022325266
Length of the computed step             ....  0.389875370
Warning: the length of the step is outside the trust region - taking restricted step instead
The input lambda is                     ....     0.000604
   iter:   5  x=   -0.001165  g=   57.878489 f(x)=     0.002248
The output lambda is                    ....    -0.001165 (8 iterations)
The final length of the internal step   ....  0.300000000
Converting the step to Cartesian space:
 Initial RMS(Int)=    0.0341881729
Transforming coordinates:
 Iter   0:  RMS(Cart)=    0.0577759147 RMS(Int)=    0.7167672257
 Iter   5:  RMS(Cart)=    0.0000365679 RMS(Int)=    0.0000245024
 Iter  10:  RMS(Cart)=    0.0000000455 RMS(Int)=    0.0000000396
done
Storing new coordinates                 .... done

                                .--------------------.
          ----------------------|Geometry convergence|-------------------------
          Item                value                   Tolerance       Converged
          ---------------------------------------------------------------------
          RMS gradient        0.0004023573            0.0001000000      NO
          MAX gradient        0.0024377758            0.0003000000      NO
          RMS step            0.0341881729            0.0020000000      NO
          MAX step            0.2890782624            0.0040000000      NO
          ........................................................
          Max(Bonds)      0.0058      Max(Angles)    0.90
          Max(Dihed)       16.56      Max(Improp)    0.00
          ---------------------------------------------------------------------

The optimization has not yet converged - more geometry cycles are needed


    ---------------------------------------------------------------------------
                         Redundant Internal Coordinates
                            (Angstroem and degrees)

        Definition                    Value    dE/dq     Step     New-Value
    ----------------------------------------------------------------------------
     1. B(C   2,N   0)                1.3649  0.002438 -0.0021    1.3628   
     2. B(C   3,C   2)                1.4174 -0.000253  0.0002    1.4177   
     3. B(C   4,C   2)                1.4154  0.000124 -0.0001    1.4153   
     4. B(C   6,C   5)                1.4101 -0.000271  0.0002    1.4103   
     5. B(C   6,C   3)                1.3857  0.000287 -0.0002    1.3855   
     6. B(C   7,C   5)                1.4096  0.000238 -0.0002    1.4094   
     7. B(C   7,C   4)                1.3868 -0.000060  0.0000    1.3868   
     8. B(C   8,C   5)                1.4301  0.000118 -0.0001    1.4300   
     9. B(C   8,N   1)                1.1630 -0.000091  0.0000    1.1630   
    10. B(H   9,C   3)                1.0915  0.000037 -0.0001    1.0915   
    11. B(H  10,C   4)                1.0933  0.000003 -0.0000    1.0933   
    12. B(H  11,C   6)                1.0922  0.000030 -0.0000    1.0922   
    13. B(H  12,C   7)                1.0919 -0.000035  0.0001    1.0920   
    14. B(H  13,N   0)                1.0097  0.000149 -0.0002    1.0095   
    15. B(H  14,N   0)                1.0171 -0.000031  0.0000    1.0171   
    16. B(O  15,H  14)                1.9414  0.000168 -0.0058    1.9355   
    17. B(H  16,O  15)                0.9666 -0.000511  0.0005    0.9671   
    18. B(H  17,O  15)                0.9667 -0.000307  0.0003    0.9670   
    19. A(C   2,N   0,H  13)          120.24  0.000604   -0.10    120.14   
    20. A(H  13,N   0,H  14)          119.00 -0.000363    0.06    119.06   
    21. A(C   2,N   0,H  14)          119.72 -0.000229    0.03    119.75   
    22. A(N   0,C   2,C   3)          120.22 -0.000621    0.08    120.30   
    23. A(C   3,C   2,C   4)          118.12  0.000356   -0.05    118.07   
    24. A(N   0,C   2,C   4)          121.66  0.000265   -0.04    121.62   
    25. A(C   6,C   3,H   9)          120.92  0.000317   -0.05    120.87   
    26. A(C   2,C   3,C   6)          120.70 -0.000349    0.05    120.75   
    27. A(C   2,C   3,H   9)          118.38  0.000031   -0.00    118.38   
    28. A(C   2,C   4,H  10)          119.39  0.000197   -0.03    119.36   
    29. A(C   2,C   4,C   7)          120.90 -0.000062    0.01    120.91   
    30. A(C   7,C   4,H  10)          119.71 -0.000135    0.02    119.73   
    31. A(C   6,C   5,C   7)          118.49  0.000193   -0.03    118.47   
    32. A(C   7,C   5,C   8)          120.86  0.000084   -0.01    120.85   
    33. A(C   6,C   5,C   8)          120.64 -0.000277    0.04    120.68   
    34. A(C   3,C   6,C   5)          120.98  0.000098   -0.01    120.97   
    35. A(C   5,C   6,H  11)          119.17 -0.000137    0.02    119.19   
    36. A(C   3,C   6,H  11)          119.85  0.000039   -0.01    119.84   
    37. A(C   5,C   7,H  12)          119.44  0.000294   -0.05    119.40   
    38. A(C   4,C   7,H  12)          119.76 -0.000057    0.01    119.77   
    39. A(C   4,C   7,C   5)          120.80 -0.000236    0.03    120.83   
    40. L(N   1,C   8,C   5,C   6, 2) 180.48  0.000091   -0.01    180.47   
    41. L(N   1,C   8,C   5,C   6, 1) 179.78 -0.000148    0.02    179.80   
    42. A(N   0,H  14,O  15)          164.14  0.000293   -0.09    164.05   
    43. A(H  14,O  15,H  17)          126.65  0.000874   -0.90    125.74   
    44. A(H  14,O  15,H  16)          127.95  0.000412   -0.77    127.19   
    45. A(H  16,O  15,H  17)          104.39 -0.001074   -0.20    104.19   
    46. D(C   4,C   2,N   0,H  14)    172.84 -0.000155    0.31    173.15   
    47. D(C   3,C   2,N   0,H  14)     -7.71 -0.000073    0.13     -7.58   
    48. D(C   3,C   2,N   0,H  13)   -175.93 -0.000097    0.15   -175.78   
    49. D(C   4,C   2,N   0,H  13)      4.63 -0.000179    0.33      4.95   
    50. D(H   9,C   3,C   2,N   0)      0.38 -0.000053    0.12      0.51   
    51. D(C   6,C   3,C   2,C   4)     -0.14 -0.000015    0.04     -0.10   
    52. D(C   6,C   3,C   2,N   0)   -179.61 -0.000094    0.21   -179.40   
    53. D(H   9,C   3,C   2,C   4)    179.85  0.000026   -0.05    179.80   
    54. D(H  10,C   4,C   2,C   3)   -179.89  0.000018   -0.05   -179.94   
    55. D(H  10,C   4,C   2,N   0)     -0.43  0.000093   -0.22     -0.65   
    56. D(C   7,C   4,C   2,C   3)      0.07  0.000007   -0.02      0.05   
    57. D(C   7,C   4,C   2,N   0)    179.53  0.000083   -0.20    179.33   
    58. D(H  11,C   6,C   3,C   2)   -179.98  0.000011   -0.03   -180.01   
    59. D(C   5,C   6,C   3,H   9)   -179.90 -0.000030    0.06   -179.84   
    60. D(H  11,C   6,C   5,C   8)      0.14  0.000001   -0.00      0.14   
    61. D(H  11,C   6,C   5,C   7)   -179.89 -0.000000   -0.00   -179.89   
    62. D(C   3,C   6,C   5,C   8)   -179.93  0.000000    0.00   -179.93   
    63. D(C   3,C   6,C   5,C   7)      0.04 -0.000001    0.00      0.04   
    64. D(H  11,C   6,C   3,H   9)      0.02 -0.000031    0.07      0.09   
    65. D(C   5,C   6,C   3,C   2)      0.09  0.000012   -0.03      0.06   
    66. D(H  12,C   7,C   5,C   8)     -0.02  0.000003   -0.00     -0.02   
    67. D(C   4,C   7,C   5,C   8)    179.85 -0.000009    0.02    179.87   
    68. D(C   4,C   7,C   5,C   6)     -0.11 -0.000007    0.02     -0.09   
    69. D(H  12,C   7,C   4,H  10)     -0.11 -0.000017    0.04     -0.07   
    70. D(H  12,C   7,C   4,C   2)    179.93 -0.000007    0.02    179.95   
    71. D(H  12,C   7,C   5,C   6)   -179.99  0.000004   -0.00   -179.99   
    72. D(C   5,C   7,C   4,H  10)   -179.98 -0.000007    0.02   -179.97   
    73. D(C   5,C   7,C   4,C   2)      0.06  0.000004   -0.01      0.05   
    74. D(O  15,H  14,N   0,H  13)    169.65  0.000554   -0.16    169.49   
    75. D(O  15,H  14,N   0,C   2)      1.28  0.000417   -0.12      1.17   
    76. D(H  16,O  15,H  14,N   0)    102.19  0.001132  -16.56     85.63   
[...]
      px      :     0.010987
      py      :     0.019941

 14 H s       :     0.848511  s :     0.848511
      pz      :     0.017129  p :     0.047747
      px      :     0.012756
      py      :     0.017862

 15 O s       :     3.679462  s :     3.679462
      pz      :     1.357390  p :     4.558472
      px      :     1.810564
      py      :     1.390518
      dz2     :     0.002604  d :     0.009952
      dxz     :     0.002310
      dyz     :     0.000933
      dx2y2   :     0.003046
      dxy     :     0.001060

 16 H s       :     0.752636  s :     0.752636
      pz      :     0.019886  p :     0.070269
      px      :     0.018661
      py      :     0.031722

 17 H s       :     0.752700  s :     0.752700
      pz      :     0.031739  p :     0.070211
      px      :     0.022395
      py      :     0.016076



                     *******************************
                     * LOEWDIN POPULATION ANALYSIS *
                     *******************************

----------------------
LOEWDIN ATOMIC CHARGES
----------------------
   0 N :   -0.005980
   1 N :   -0.095221
   2 C :    0.044861
   3 C :   -0.074030
   4 C :   -0.070774
   5 C :   -0.111045
   6 C :    0.013384
   7 C :    0.016413
   8 C :   -0.032655
   9 H :    0.007378
  10 H :    0.023744
  11 H :    0.033928
  12 H :    0.035820
  13 H :    0.072891
  14 H :    0.055270
  15 O :   -0.093475
  16 H :    0.089926
  17 H :    0.089566

-------------------------------
LOEWDIN REDUCED ORBITAL CHARGES
-------------------------------
  0 N s       :     3.022656  s :     3.022656
      pz      :     1.501017  p :     3.942027
      px      :     1.154889
      py      :     1.286121
      dz2     :     0.002862  d :     0.041297
      dxz     :     0.008727
      dyz     :     0.003506
      dx2y2   :     0.012381
      dxy     :     0.013820

  1 N s       :     3.426462  s :     3.426462
      pz      :     1.083556  p :     3.616078
      px      :     1.466928
      py      :     1.065594
      dz2     :     0.006357  d :     0.052682
      dxz     :     0.013438
      dyz     :     0.000200
      dx2y2   :     0.018710
      dxy     :     0.013978

  2 C s       :     2.835623  s :     2.835623
      pz      :     0.961160  p :     2.969399
      px      :     0.969388
      py      :     1.038851
      dz2     :     0.015840  d :     0.150117
      dxz     :     0.037543
      dyz     :     0.014764
      dx2y2   :     0.042152
      dxy     :     0.039819

  3 C s       :     2.857630  s :     2.857630
      pz      :     1.045641  p :     3.130356
      px      :     1.050829
      py      :     1.033886
      dz2     :     0.007172  d :     0.086045
      dxz     :     0.017325
      dyz     :     0.010168
      dx2y2   :     0.023129
      dxy     :     0.028250

  4 C s       :     2.858365  s :     2.858365
      pz      :     1.044068  p :     3.126581
      px      :     1.052324
      py      :     1.030189
      dz2     :     0.007572  d :     0.085829
      dxz     :     0.017934
      dyz     :     0.009467
      dx2y2   :     0.023195
      dxy     :     0.027660

  5 C s       :     2.837218  s :     2.837218
      pz      :     1.075065  p :     3.161761
      px      :     1.012629
      py      :     1.074067
      dz2     :     0.013740  d :     0.112065
      dxz     :     0.018198
      dyz     :     0.015380
      dx2y2   :     0.035264
      dxy     :     0.029484

  6 C s       :     2.860048  s :     2.860048
      pz      :     0.969638  p :     3.033983
      px      :     1.055781
      py      :     1.008564
      dz2     :     0.009263  d :     0.092585
      dxz     :     0.020968
      dyz     :     0.009679
      dx2y2   :     0.024222
      dxy     :     0.028453

  7 C s       :     2.860351  s :     2.860351
      pz      :     0.967245  p :     3.030981
      px      :     1.054939
      py      :     1.008798
      dz2     :     0.008185  d :     0.092255
      dxz     :     0.019988
      dyz     :     0.010941
      dx2y2   :     0.024740
      dxy     :     0.028401

  8 C s       :     2.910395  s :     2.910395
      pz      :     0.932174  p :     3.010594
      px      :     1.150995
      py      :     0.927425
      dz2     :     0.010242  d :     0.111666
      dxz     :     0.036802
      dyz     :     0.000659
      dx2y2   :     0.030380
      dxy     :     0.033582

  9 H s       :     0.922378  s :     0.922378
      pz      :     0.022632  p :     0.070243
      px      :     0.021304
      py      :     0.026307

 10 H s       :     0.908217  s :     0.908217
      pz      :     0.020933  p :     0.068039
      px      :     0.015673
      py      :     0.031433

 11 H s       :     0.899371  s :     0.899371
      pz      :     0.018928  p :     0.066702
      px      :     0.016604
      py      :     0.031170

 12 H s       :     0.897387  s :     0.897387
      pz      :     0.020460  p :     0.066793
      px      :     0.020210
      py      :     0.026123

 13 H s       :     0.804035  s :     0.804035
      pz      :     0.040963  p :     0.123075
      px      :     0.026316
      py      :     0.055795

 14 H s       :     0.802910  s :     0.802910
      pz      :     0.055024  p :     0.141821
      px      :     0.033303
      py      :     0.053493

 15 O s       :     3.422653  s :     3.422653
      pz      :     1.409197  p :     4.652037
      px      :     1.783842
      py      :     1.458998
      dz2     :     0.005558  d :     0.018785
      dxz     :     0.004670
      dyz     :     0.002063
      dx2y2   :     0.005631
      dxy     :     0.000863

 16 H s       :     0.734485  s :     0.734485
      pz      :     0.038364  p :     0.175589
      px      :     0.049654
      py      :     0.087570

 17 H s       :     0.734764  s :     0.734764
      pz      :     0.081697  p :     0.175669
      px      :     0.060638
      py      :     0.033334



                      *****************************
                      * MAYER POPULATION ANALYSIS *
                      *****************************

  NA   - Mulliken gross atomic population
  ZA   - Total nuclear charge
  QA   - Mulliken gross atomic charge
  VA   - Mayer's total valence
  BVA  - Mayer's bonded valence
  FA   - Mayer's free valence

  ATOM       NA         ZA         QA         VA         BVA        FA
  0 N      7.0587     7.0000    -0.0587     3.2439     3.2439    -0.0000
  1 N      6.9670     7.0000     0.0330     3.1323     3.1323     0.0000
  2 C      5.9099     6.0000     0.0901     4.0563     4.0563     0.0000
  3 C      6.0270     6.0000    -0.0270     3.7493     3.7493    -0.0000
  4 C      6.0402     6.0000    -0.0402     3.7766     3.7766     0.0000
  5 C      6.1055     6.0000    -0.1055     3.8982     3.8982     0.0000
  6 C      5.9542     6.0000     0.0458     3.8653     3.8653     0.0000
  7 C      5.9589     6.0000     0.0411     3.8855     3.8855     0.0000
  8 C      6.1260     6.0000    -0.1260     4.0553     4.0553    -0.0000
  9 H      1.0961     1.0000    -0.0961     1.0469     1.0469    -0.0000
 10 H      1.0401     1.0000    -0.0401     0.9866     0.9866     0.0000
 11 H      1.0194     1.0000    -0.0194     0.9843     0.9843    -0.0000
 12 H      1.0147     1.0000    -0.0147     0.9846     0.9846     0.0000
 13 H      0.8923     1.0000     0.1077     1.0014     1.0014    -0.0000
 14 H      0.8963     1.0000     0.1037     1.0783     1.0783    -0.0000
 15 O      8.2479     8.0000    -0.2479     2.1717     2.1717    -0.0000
 16 H      0.8229     1.0000     0.1771     1.0010     1.0010     0.0000
 17 H      0.8229     1.0000     0.1771     1.0014     1.0014     0.0000

  Mayer bond orders larger than 0.100000
B(  0-N ,  2-C ) :   1.3192 B(  0-N , 13-H ) :   0.9452 B(  0-N , 14-H ) :   0.9002 
B(  1-N ,  8-C ) :   2.9979 B(  2-C ,  3-C ) :   1.2812 B(  2-C ,  4-C ) :   1.2771 
B(  3-C ,  6-C ) :   1.4096 B(  3-C ,  9-H ) :   0.9673 B(  4-C ,  7-C ) :   1.4179 
B(  4-C , 10-H ) :   0.9851 B(  5-C ,  6-C ) :   1.3415 B(  5-C ,  7-C ) :   1.3438 
B(  5-C ,  8-C ) :   1.0852 B(  6-C , 11-H ) :   0.9844 B(  7-C , 12-H ) :   0.9840 
B( 14-H , 15-O ) :   0.1268 B( 15-O , 16-H ) :   0.9876 B( 15-O , 17-H ) :   0.9872 


-------
TIMINGS
-------

Total SCF time: 0 days 0 hours 0 min 3 sec 

Total time                  ....       3.018 sec
Sum of individual times     ....       2.952 sec  ( 97.8%)

SCF preparation             ....       0.364 sec  ( 12.1%)
Fock matrix formation       ....       2.441 sec  ( 80.9%)
  Startup                   ....       0.023 sec  (  0.9% of F)
  Split-RI-J                ....       0.160 sec  (  6.6% of F)
  Chain of spheres X        ....       1.866 sec  ( 76.5% of F)
  XC integration            ....       0.358 sec  ( 14.7% of F)
    XC Preparation          ....       0.000 sec  (  0.0% of XC)
    Basis function eval.    ....       0.110 sec  ( 30.7% of XC)
    Density eval.           ....       0.047 sec  ( 13.2% of XC)
    XC-Functional eval.     ....       0.029 sec  (  8.0% of XC)
    XC-Potential eval.      ....       0.069 sec  ( 19.2% of XC)
Diagonalization             ....       0.000 sec  (  0.0%)
Density matrix formation    ....       0.028 sec  (  0.9%)
Total Energy calculation    ....       0.015 sec  (  0.5%)
Population analysis         ....       0.034 sec  (  1.1%)
Orbital Transformation      ....       0.011 sec  (  0.4%)
Orbital Orthonormalization  ....       0.000 sec  (  0.0%)
DIIS solution               ....       0.017 sec  (  0.6%)
SOSCF solution              ....       0.042 sec  (  1.4%)
Finished LeanSCF after   3.1 sec

Maximum memory used throughout the entire LEANSCF-calculation: 19.5 MB


-------------------------------------------------------------------------------
                          DFT DISPERSION CORRECTION                            
                                                                               
                              DFTD3 V3.1  Rev 1                                
                          USING Becke-Johnson damping                          
-------------------------------------------------------------------------------
The B3LYP functional is recognized
Active option DFTDOPT                   ...         4   

molecular C6(AA) [au] = 3763.877312 


            DFT-D V3
 parameters
 s6 scaling factor         :     1.0000 
 a1 scaling factor         :     0.3981 
 s8 scaling factor         :     1.9889 
 a2 scaling factor         :     4.4211 
 ad hoc parameters k1-k3   :    16.0000     1.3333    -4.0000 

 Edisp/kcal,au: -19.003289897300  -0.030283666870 
 E6   /kcal   :  -8.899574915 
 E8   /kcal   : -10.103714982 
 % E8         :  53.168241060 

-------------------------   ----------------
Dispersion correction           -0.030283667
-------------------------   ----------------


-------------------------   --------------------
FINAL SINGLE POINT ENERGY      -455.715768003631
-------------------------   --------------------

                                *** OPTIMIZATION RUN DONE ***



           ************************************************************
           *        Program running with 10 parallel MPI-processes    *
           *              working on a common directory               *
           ************************************************************

------------------------------------------------------------------------------
                              ORCA PROPERTY CALCULATIONS
------------------------------------------------------------------------------

GBWName                                 ... 4nitroaniline_water_2.gbw
Number of atoms                         ...     18
Number of basis functions               ...    180
Max core memory                         ...   2000 MB

Electric properties:
Dipole moment                           ... YES
Quadrupole moment                       ...  NO
Static polarizability (Dipole/Dipole)   ...  NO
Static polarizability (Dipole/Quad.)    ...  NO
Static polarizability (Quad./Quad.)     ...  NO
Static polarizability (Velocity)        ...  NO

Atomic electric properties:
Dipole moment                           ...  NO
Quadrupole moment                       ...  NO
Static polarizability                   ...  NO

Choice of electric origin               ... Center of mass
Position of electric origin             ...    -0.006816     7.366749     1.783026

General magnetic properties:
Magnetizability                         ...  NO

EPR properties:
g-Tensor (aka g-matrix)                 ...  NO
Zero-Field splitting spin-orbit         ...  NO
Zero-field splitting spin-spin          ...  NO
Hyperfine couplings                     ...  NO (   0 nuclei)
Quadrupole couplings                    ...  NO (   0 nuclei)
Contact density                         ...  NO (   0 nuclei)

NMR properties:
Chemical shifts                         ...  NO (   0 nuclei)
Spin-rotation constants                 ...  NO (   0 nuclei)
Spin-spin couplings                     ...  NO (   0 nuclei,    0 pairs)

Choice of magnetic origin               ... GIAO
Position of magnetic origin             ...     0.000000     0.000000     0.000000

Properties with geometric perturbations:
SCF Hessian                             ...  NO
IR spectrum                             ...  NO
VCD spectrum                            ...  NO
X-ray spectroscopy properties:
SCF XES/XAS/RIXS spectra                ...  NO


-------------
DIPOLE MOMENT
-------------

Method             : SCF
Type of density    : Electron Density
Multiplicity       :   1
Irrep              :   0
Energy             :  -455.6854843367606804 Eh
Relativity type    : 
Basis              : AO
                                X                 Y                 Z
Electronic contribution:     -8.650849753       0.980287935      -1.965861578
Nuclear contribution   :     11.569684456      -1.379365732       2.737875903
                        -----------------------------------------
Total Dipole Moment    :      2.918834703      -0.399077797       0.772014325
                        -----------------------------------------
Magnitude (a.u.)       :      3.045466341
Magnitude (Debye)      :      7.740960254



--------------------
Rotational spectrum 
--------------------
 
Rotational constants in cm-1:             0.102468             0.020220             0.016938 
Rotational constants in MHz :          3071.915069           606.185414           507.803170 

Dipole components along the rotational axes: 
x,y,z [a.u.] :     3.043508    -0.085634    -0.067758 
x,y,z [Debye]:     7.735983    -0.217663    -0.172228 

 

Dipole moment calculation done in   0.0 sec 

Maximum memory used throughout the entire PROP-calculation: 9.3 MB

--------------------------------
SUGGESTED CITATIONS FOR THIS RUN
--------------------------------

Below you find a list of papers that are relevant to this ORCA run
We neither can nor want to force you to cite these papers, but we appreciate if you do
You receive ORCA, which is the product of decades of hard work by many enthusiastic individuals, for free
The only thing we kindly ask in return is that you cite our papers,
We deeply appreciate it, if you show your appreciation for ORCA by not just citing the generic ORCA reference.

Please note that relegating all ORCA citations to the supporting information does *not* help us.
SI sections are not indexed - citations you put there will not count into any citation statistics
But we need these citations in order to attract the funding resources that allow us to do what we are doing

Therefore, if you are a happy ORCA user, please consider citing a few of the papers listed below in the main body of your paper

In addition to the list printed below, the program has created the file 4nitroaniline_water_2.bibtex that contains the list in bibtex format
You can import this file easily into all common literature databanks and citation aid programs


List of essential papers. We consider these as the minimum necessary citations

  1. Neese,F.
     Software update: the ORCA program system, version 5.0
     WIRES Comput. Molec. Sci., 2022 12(1)e1606
     doi.org/10.1002/wcms.1606

List of papers to cite with high priority. The work reported in these papers was absolutely
necessary for this run to complete.
Our perspective: the developers of density functionals and basis sets usually get cited in chemistry papers
Good! But without the algorithms to do something with them, the functionals or basis sets would not do anything.
Hence, in our opinion, the algorithm design and method developments papers are equally worthy of getting cited

  1. Neese,F.
     An improvement of the resolution of the identity approximation for the formation of the Coulomb matrix
     J. Comp. Chem., 2003 24(14)1740-1747
     doi.org/10.1002/jcc.10318
  2. Neese,F.; Wennmohs,F.; Hansen,A.; Becker,U.
     Efficient, approximate and parallel Hartree-Fock and hybrid DFT calculations. A 'chain-of-spheres' algorithm for the Hartree-Fock exchange
     Chem. Phys., 2009 356(1-3)98-109
     doi.org/10.1016/j.chemphys.2008.10.036
  3. Helmich-Paris,B.; de Souza,B.; Neese,F.; Izsák,R.
     An improved chain of spheres for exchange algorithm
     J. Chem. Phys., 2021 155 104109
     doi.org/doi: 10.1063/5.0058766.
  4. Neese,F.
     The SHARK Integral Generation and Digestion System
     J. Comp. Chem., 2022  1-16
     doi.org/10.1002/jcc.26942
  5. Grimme,S.; Antony,J.; Ehrlich,S.; Krieg,H.
     A consistent and accurate ab initio parametrization of density functional dispersion correction (DFT-D) for the 94 elements H-Pu
     J. Chem. Phys., 2010 132 154104
     doi.org/10.1063/1.3382344
  6. Grimme,S.; Ehrlich,S.; Goerigk,L.
     Effect of the damping function in dispersion corrected density functional theory
     J. Comput. Chem., 2011 32(7)1456-1465
     doi.org/10.1002/jcc.21759

List of suggested additional citations. These are papers that are important in the 'surrounding' of 
of this run, or papers that preceded the highly important papers. If you like your results we are grateful for a citation.

  1. Izsak,R.; Neese,F.
     An overlap fitted chain of spheres exchange method
     J. Chem. Phys., 2011 135 144105
     doi.org/10.1063/1.3646921
  2. Izsak,R.; Hansen,A.; Neese,F.
     The resolution of identity and chain of spheres approximations for the LPNO-CCSD singles Fock term
     Molec. Phys., 2012 110 2413-2417
     doi.org/10.1080/00268976.2012.687466
  3. Neese,F.
     The ORCA program system
     WIRES Comput. Molec. Sci., 2012 2(1)73-78
     doi.org/10.1002/wcms.81
  4. Izsak,R.; Neese,F.; Klopper,W.
     Robust fitting techniques in the chain of spheres approximation to the Fock exchange: The role of the complementary space
     J. Chem. Phys., 2013 139 
     doi.org/10.1063/1.4819264
  5. Neese,F.
     Software update: the ORCA program system, version 4.0
     WIRES Comput. Molec. Sci., 2018 8(1)1-6
     doi.org/10.1002/wcms.1327
  6. Neese,F.; Wennmohs,F.; Becker,U.; Riplinger,C.
     The ORCA quantum chemistry program package
     J. Chem. Phys., 2020 152 Art. No. L224108
     doi.org/10.1063/5.0004608

List of optional additional citations

  1. Neese,F.
     Approximate second-order SCF convergence for spin unrestricted wavefunctions
     Chem. Phys. Lett., 2000 325(1-3)93-98
     doi.org/10.1016/s0009-2614(00)00662-x

Timings for individual modules:

Sum of individual times          ...       98.700 sec (=   1.645 min)
Startup calculation              ...       13.042 sec (=   0.217 min)  13.2 %
SCF iterations                   ...       54.136 sec (=   0.902 min)  54.8 %
Property calculations            ...        0.430 sec (=   0.007 min)   0.4 %
SCF Gradient evaluation          ...       31.007 sec (=   0.517 min)  31.4 %
Geometry relaxation              ...        0.085 sec (=   0.001 min)   0.1 %
                             ****ORCA TERMINATED NORMALLY****
TOTAL RUN TIME: 0 days 0 hours 1 minutes 45 seconds 410 msec
