
                                 *****************
                                 * O   R   C   A *
                                 *****************

                                            #,                                       
                                            ###                                      
                                            ####                                     
                                            #####                                    
                                            ######                                   
                                           ########,                                 
                                     ,,################,,,,,                         
                               ,,#################################,,                 
                          ,,##########################################,,             
                       ,#########################################, ''#####,          
                    ,#############################################,,   '####,        
                  ,##################################################,,,,####,       
                ,###########''''           ''''###############################       
              ,#####''   ,,,,##########,,,,          '''####'''          '####       
            ,##' ,,,,###########################,,,                        '##       
           ' ,,###''''                  '''############,,,                           
         ,,##''                                '''############,,,,        ,,,,,,###''
      ,#''                                            '''#######################'''  
     '                                                          ''''####''''         
             ,#######,   #######,   ,#######,      ##                                
            ,#'     '#,  ##    ##  ,#'     '#,    #''#        ,####,   ,####,        
            ##       ##  ##   ,#'  ##            #'  '#       #'       #'  '#        
            ##       ##  #######   ##           ,######,      #####,   #    #        
            '#,     ,#'  ##    ##  '#,     ,#' ,#      #,     #,   #   #,  ,#        
             '#######'   ##     ##  '#######'  #'      '#     '####' # '####'        



                #########################################################
                #                        -***-                          #
                #          Department of theory and spectroscopy        #
                #                                                       #
                #                      Frank Neese                      #
                #                                                       #
                #     Directorship, Architecture, Infrastructure        #
                #                    SHARK, DRIVERS                     #
                #        Core code/Algorithms in most modules           #
                #                                                       #
                #        Max Planck Institute fuer Kohlenforschung      #
                #                Kaiser Wilhelm Platz 1                 #
                #                 D-45470 Muelheim/Ruhr                 #
                #                      Germany                          #
                #                                                       #
                #                  All rights reserved                  #
                #                        -***-                          #
                #########################################################


                         Program Version 6.0.1  -  RELEASE   -


 With contributions from (in alphabetic order):
[Max-Planck-Institut fuer Kohlenforschung]                               
  Daniel Aravena         : Magnetic Suceptibility                        
  Michael Atanasov       : Ab Initio Ligand Field Theory (pilot matlab implementation)
  Alexander A. Auer      : GIAO ZORA, VPT2 properties, NMR spectrum      
  Ute Becker             : All parallelization in ORCA, NUMFREQ, NUMCALC 
  Giovanni Bistoni       : ED, misc. LED, open-shell LED, HFLD           
  Martin Brehm           : Molecular dynamics                            
  Dmytro Bykov           : pre 5.0 version of the SCF Hessian            
  Marcos Casanova-Páez   : Triplet and SCS-CIS(D). UHF-(DLPNO)-IP/EA/STEOM-CCSD. UHF-CVS-IP/STEOM-CCSD   
  Vijay G. Chilkuri      : MRCI spin determinant printing, contributions to CSF-ICE 
  Pauline Colinet        : FMM embedding                                 
  Dipayan Datta          : RHF DLPNO-CCSD density                        
  Achintya Kumar Dutta   : EOM-CC, STEOM-CC                              
  Nicolas Foglia         : Exact transition moments, OPA infrastructure, MCD improvements    
  Dmitry Ganyushin       : Spin-Orbit,Spin-Spin,Magnetic field MRCI      
  Miquel Garcia-Rates    : C-PCM and meta-GGA Hessian, CCSD/C-PCM, Gaussian charge scheme 
  Tiago L. C. Gouveia    : GS-ROHF, GS-ROCIS                             
  Yang Guo               : DLPNO-NEVPT2, F12-NEVPT2, CIM, IAO-localization        
  Andreas Hansen         : Spin unrestricted coupled pair/coupled cluster methods 
  Ingolf Harden          : AUTO-CI MPn and infrastructure                
  Benjamin Helmich-Paris : MC-RPA, TRAH-(SCF,CASSCF), AVAS, COSX integrals, SCF dyn. polar. 
  Lee Huntington         : MR-EOM, pCC                                   
  Robert Izsak           : Overlap fitted RIJCOSX, COSX-SCS-MP3, EOM     
  Riya Kayal             : Wick's Theorem for AUTO-CI, AUTO-CI UHF-CCSDT 
  Emily Kempfer          : AUTO-CI, RHF CISDT and CCSDT                  
  Christian Kollmar      : KDIIS, OOCD, Brueckner-CCSD(T), CCSD density, CASPT2, CASPT2-K, improved NEVPT2 
  Axel Koslowski         : Symmetry handling                             
  Simone Kossmann        : meta-GGA functionals, TD-DFT gradient, OOMP2, (MP2 Hessian; deprecated post 5.0) 
  Lucas Lang             : DCDCAS                                        
  Marvin Lechner         : AUTO-CI (C++ implementation), FIC-MRCC        
  Spencer Leger          : CASSCF response                               
  Dagmar Lenk            : GEPOL surface, SMD, ORCA-2-JSON               
  Dimitrios Liakos       : Extrapolation schemes; Compound Job, initial MDCI parallelization 
  Dimitrios Manganas     : Further ROCIS development; embedding schemes. LFT, Crystal Embedding 
  Dimitrios Pantazis     : SARC Basis sets                               
  Anastasios Papadopoulos: AUTO-CI, single reference methods and gradients 
  Taras Petrenko         : pre 6.0 DFT Hessian and TD-DFT gradient, (ASA, deprecated), ECA, 1-Electron XAS/XES, NRVS 
  Peter Pinski           : DLPNO-MP2, DLPNO-MP2 Gradient                 
  Christoph Reimann      : Effective Core Potentials                     
  Marius Retegan         : Local ZFS, SOC                                
  Christoph Riplinger    : Optimizer, TS searches, QM/MM, DLPNO-CCSD(T), (RO)-DLPNO pert. Triples 
  Michael Roemelt        : Original ROCIS implementation                 
  Masaaki Saitow         : Open-shell DLPNO-CCSD energy and density      
  Barbara Sandhoefer     : DKH picture change effects                    
  Kantharuban Sivalingam : CASSCF convergence/infrastructure, NEVPT2 and variants, FIC-MRCI 
  Bernardo de Souza      : ESD, SOC TD-DFT                               
  Georgi L. Stoychev     : AutoAux, RI-MP2 NMR, DLPNO-MP2 response, X2C  
  Van Anh Tran           : RI-MP2 g-tensors                              
  Willem Van den Heuvel  : Paramagnetic NMR                              
  Zikuan Wang            : NOTCH, Electric field optimization            
  Frank Wennmohs         : Technical directorship and infrastructure     
  Hang Xu                : AUTO-CI-Response properties                   
                                                                         
[FACCTs GmbH]                                                            
  Markus Bursch, Miquel Garcia-Rates, Christoph Riplinger, Bernardo de Souza, Georgi L. Stoychev 
                                                                 
  APM, Basis sets (HGBS, AHGBS, def-TZVP (Ac-Lr), def2-XVPD (La-Lu)), CI-OPT, improved COSX, DLPNO-Multilevel,           
  DOCKER, DRACO, updates on ESD, GOAT, IRC, LR-CPCM, MBIS, meta-GGA TD-DFT gradient, ML-optimized integration grids, 
  MM, NACMEs, nearIR, NEB, NEB-TS, NL-DFT gradient (VV10), 2- and 3-layer-ONIOM, interface openCOSMO-RS, QMMM,   
  Crystal-QMMM, SF, symmetry and pop. for TD-DFT, r2SCAN hybrids, SOLVATOR                                   
                                                                         
[Other institutions]                                                     
  V. Asgeirsson          : NEB                                           
  Christoph Bannwarth    : sTDA-DFT, sTD-DFT, PBEh-3c, B97-3c, D3        
  Sebastian Ehlert       : rSCAN, r2SCAN, r2SCAN-3c, D4, dhf basis sets  
  Marvin Friede          : D4 for Fr, Ra, Ac-Lr                          
  Lars Goerigk           : TD-DFT with DH, B97 family of functionals     
  Stefan Grimme          : VdW corrections, initial TS optimization, DFT functionals, gCP, sTDA/sTD-DF 
  Waldemar Hujo          : DFT-NL                                        
  H. Jonsson             : NEB                                           
  Holger Kruse           : gCP                                           
  Marcel Mueller         : wB97X-3c, vDZP basis set                      
  Hagen Neugebauer       : wr2SCAN                                       
  Tobias Risthaus        : range-separated hybrid DFT                    
  Lukas Wittmann         : regularized MP2, r2SCAN double-hybrids, wr2SCAN        
                                                                         
We gratefully acknowledge several colleagues who have allowed us to      
interface, adapt or use parts of their codes:                            
  Ed Valeev, F. Pavosevic, A. Kumar             : LibInt (2-el integral package), F12 methods 
  Garnet Chan, S. Sharma, J. Yang, R. Olivares  : DMRG                   
  Ulf Ekstrom                                   : XCFun DFT Library      
  Mihaly Kallay                                 : mrcc  (arbitrary order and MRCC methods)
  Frank Weinhold                                : gennbo (NPA and NBO analysis)           
  Simon Mueller                                 : openCOSMO-RS                            
  Christopher J. Cramer and Donald G. Truhlar   : smd solvation model                     
  S Lehtola, MJT Oliveira, MAL Marques          : LibXC Library                           
  Liviu Ungur et al                             : ANISO software                          


 Your calculation uses the libint2 library for the computation of 2-el integrals
 For citations please refer to: http://libint.valeyev.net

 Your ORCA version has been built with support for libXC version: 6.2.2
 For citations please refer to: https://libxc.gitlab.io

 This ORCA versions uses:
   CBLAS   interface :  Fast vector & matrix operations
   LAPACKE interface :  Fast linear algebra routines
   SCALAPACK package :  Parallel linear algebra routines
   Shared memory     :  Shared parallel matrices
   BLAS/LAPACK       :  OpenBLAS 0.3.27  USE64BITINT DYNAMIC_ARCH NO_AFFINITY SkylakeX SINGLE_THREADED
        Core in use  :  SkylakeX
   Copyright (c) 2011-2014, The OpenBLAS Project


NOTE: MaxCore=2000 MB was set to SCF,MP2,MDCI,CIPSI,MRCI and CIS
      => If you want to overwrite this, your respective input block should be placed after the MaxCore statement
Your calculation utilizes the atom-pairwise dispersion correction
with the Becke-Johnson damping scheme (D3BJ)


Warning: RI is on but no J-basis has been assigned. Assigning Def2/J (nothing to worry about!)
================================================================================

----- Orbital basis set information -----
Your calculation utilizes the basis: def2-SVP
   F. Weigend and R. Ahlrichs, Phys. Chem. Chem. Phys. 7, 3297 (2005).

----- AuxJ basis set information -----
Your calculation utilizes the auxiliary basis: def2/J
   F. Weigend, Phys. Chem. Chem. Phys. 8, 1057 (2006).

================================================================================
                                        WARNINGS
                       Please study these warnings very carefully!
================================================================================

WARNING: Old DensityContainer found on disk!
         Will remove this file - 
         If you want to keep old densities, please start your calculation with a different basename. 


WARNING: Geometry Optimization
  ===> : Switching off AutoStart
         For restart on a previous wavefunction, please use MOREAD

================================================================================
                                       INPUT FILE
================================================================================
NAME = 4nitroaniline_water_2.inp
|  1> ! B3LYP def2-SVP OPT TightSCF D3BJ
|  2> 
|  3> %maxcore 2000
|  4> 
|  5> %pal
|  6> nprocs 10
|  7> end
|  8> 
|  9> * xyz 0 1
| 10> N          2.73435        3.90104        0.79754
| 11> N         -4.05898        3.90123        0.79703
| 12> C          1.36786        3.90107        0.79729
| 13> C          0.64118        2.68833        0.79727
| 14> C          0.64125        5.11385        0.79724
| 15> C         -1.46586        3.90115        0.79717
| 16> C         -0.74562        2.69035        0.79721
| 17> C         -0.74556        5.11190        0.79719
| 18> C         -2.89648        3.90119        0.79709
| 19> H          1.18186        1.73826        0.79731
| 20> H          1.18197        6.06390        0.79727
| 21> H         -1.28903        1.74341        0.79718
| 22> H         -1.28892        6.05887        0.79715
| 23> H          3.25322        4.76669        0.79622
| 24> H          3.25318        3.03536        0.79624
| 25> O          2.63953        3.50567        2.05682
| 26> H          3.21608        2.93483        2.58278
| 27> H          2.59842        4.31745        2.58041
| 28> *
| 29> 
| 30>                          ****END OF INPUT****
================================================================================

                       *****************************
                       * Geometry Optimization Run *
                       *****************************

Geometry optimization settings:
Update method            Update   .... BFGS
Choice of coordinates    CoordSys .... (2022) Redundant Internals
Initial Hessian          InHess   .... Almloef's Model
Max. no of cycles        MaxIter  .... 54

Convergence Tolerances:
Energy Change            TolE     ....  5.0000e-06 Eh
Max. Gradient            TolMAXG  ....  3.0000e-04 Eh/bohr
RMS Gradient             TolRMSG  ....  1.0000e-04 Eh/bohr
Max. Displacement        TolMAXD  ....  4.0000e-03 bohr
RMS Displacement         TolRMSD  ....  2.0000e-03 bohr
Strict Convergence                .... False

------------------------------------------------------------------------------
                        ORCA OPTIMIZATION COORDINATE SETUP
------------------------------------------------------------------------------

The optimization will be done in redundant internal coordinates (2022)
Making redundant internal coordinates   ...  (2022 redundants) done
Evaluating the initial hessian          ...  (Almloef) done
Evaluating the coordinates              ...  done
Calculating the B-matrix                .... done
Calculating the G-matrix                .... done
Diagonalizing the G-matrix              .... done
The first mode is                       ....   50
The number of degrees of freedom        ....   48

    -----------------------------------------------------------------
                    Redundant Internal Coordinates


    -----------------------------------------------------------------
         Definition                    Initial Value    Approx d2E/dq
    -----------------------------------------------------------------
      1. B(C   2,N   0)                  1.3665         0.610076   
      2. B(C   3,C   2)                  1.4138         0.572510   
      3. B(C   4,C   2)                  1.4138         0.572514   
      4. B(C   6,C   5)                  1.4088         0.583052   
      5. B(C   6,C   3)                  1.3868         0.632181   
      6. B(C   7,C   5)                  1.4088         0.583079   
      7. B(C   7,C   4)                  1.3868         0.632158   
      8. B(C   8,C   5)                  1.4306         0.538185   
      9. B(C   8,N   1)                  1.1625         1.290735   
     10. B(H   9,C   3)                  1.0931         0.355962   
     11. B(H  10,C   4)                  1.0931         0.355959   
     12. B(H  11,C   6)                  1.0918         0.357749   
     13. B(H  12,C   7)                  1.0918         0.357748   
     14. B(H  13,N   0)                  1.0092         0.433908   
     15. B(H  14,N   0)                  1.0093         0.433900   
     16. B(O  15,C   2)                  1.8330         0.109924   
     17. B(O  15,N   0)                  1.3233         0.640391   
     18. B(H  16,O  15)                  0.9669         0.506936   
     19. B(H  17,O  15)                  0.9669         0.507012   
     20. A(C   2,N   0,H  14)          120.9368         0.357853   
     21. A(H  13,N   0,H  14)          118.1258         0.303525   
     22. A(C   2,N   0,H  13)          120.9371         0.357854   
     23. A(H  14,N   0,O  15)           77.3959         0.358539   
     24. A(H  13,N   0,O  15)          107.1186         0.358540   
     25. A(C   2,N   0,O  15)           85.9013         0.426800   
     26. A(C   4,C   2,O  15)          122.7942         0.316213   
     27. A(C   3,C   2,C   4)          118.1428         0.421841   
     28. A(N   0,C   2,O  15)           46.0609         0.317608   
     29. A(N   0,C   2,C   4)          120.9282         0.423885   
     30. A(N   0,C   2,C   3)          120.9290         0.423884   
     31. A(C   3,C   2,O  15)           99.8788         0.316213   
     32. A(C   6,C   3,H   9)          119.7274         0.353381   
     33. A(C   2,C   3,H   9)          119.4258         0.347514   
     34. A(C   2,C   3,C   6)          120.8468         0.429394   
     35. A(C   2,C   4,H  10)          119.4267         0.347514   
     36. A(C   2,C   4,C   7)          120.8464         0.429391   
     37. A(C   7,C   4,H  10)          119.7269         0.353379   
     38. A(C   6,C   5,C   7)          118.5046         0.424604   
     39. A(C   7,C   5,C   8)          120.7477         0.418577   
     40. A(C   6,C   5,C   8)          120.7477         0.418573   
     41. A(C   3,C   6,C   5)          120.8296         0.430802   
     42. A(C   5,C   6,H  11)          119.4041         0.348879   
     43. A(C   3,C   6,H  11)          119.7663         0.353681   
     44. A(C   5,C   7,H  12)          119.4040         0.348881   
     45. A(C   4,C   7,H  12)          119.7661         0.353679   
     46. A(C   4,C   7,C   5)          120.8298         0.430803   
     47. L(N   1,C   8,C   5,C   7, 2) 179.9995         0.480272   
     48. L(N   1,C   8,C   5,C   7, 1) 179.9996         0.480272   
     49. A(N   0,O  15,H  16)          130.6410         0.368199   
     50. A(N   0,O  15,C   2)           48.0378         0.318192   
     51. A(H  16,O  15,H  17)          103.0889         0.319184   
     52. A(C   2,O  15,H  17)           99.2940         0.277956   
     53. A(N   0,O  15,H  17)          105.5175         0.368208   
     54. A(C   2,O  15,H  16)          156.1789         0.277949   
     55. D(C   3,C   2,N   0,H  14)      0.0977         0.035154   
     56. D(C   3,C   2,N   0,H  13)    179.9117         0.035154   
     57. D(C   4,C   2,N   0,O  15)    107.4264         0.035154   
     58. D(C   4,C   2,N   0,H  13)     -0.0976         0.035154   
     59. D(C   4,C   2,N   0,H  14)   -179.9116         0.035154   
     60. D(C   3,C   2,N   0,O  15)    -72.5643         0.035154   
     61. D(C   6,C   3,C   2,N   0)    179.9907         0.024421   
     62. D(C   6,C   3,C   2,O  15)    135.7773         0.024421   
     63. D(H   9,C   3,C   2,C   4)   -179.9999         0.024421   
     64. D(H   9,C   3,C   2,N   0)     -0.0089         0.024421   
     65. D(C   6,C   3,C   2,C   4)     -0.0003         0.024421   
     66. D(C   7,C   4,C   2,O  15)   -125.1762         0.024421   
     67. D(C   7,C   4,C   2,C   3)      0.0008         0.024421   
     68. D(C   7,C   4,C   2,N   0)   -179.9902         0.024421   
     69. D(H  10,C   4,C   2,N   0)      0.0081         0.024421   
     70. D(H  10,C   4,C   2,C   3)    179.9991         0.024421   
     71. D(H  11,C   6,C   5,C   8)     -0.0000         0.023367   
     72. D(C   3,C   6,C   5,C   8)    179.9992         0.023367   
     73. D(H  11,C   6,C   3,H   9)     -0.0014         0.027722   
     74. D(H  11,C   6,C   3,C   2)    179.9991         0.027722   
     75. D(C   5,C   6,C   3,H   9)    179.9994         0.027722   
     76. D(H  11,C   6,C   5,C   7)   -179.9991         0.023367   
     77. D(C   5,C   6,C   3,C   2)     -0.0001         0.027722   
     78. D(C   3,C   6,C   5,C   7)      0.0001         0.023367   
     79. D(C   4,C   7,C   5,C   8)   -179.9987         0.023370   
     80. D(C   4,C   7,C   5,C   6)      0.0004         0.023370   
     81. D(H  12,C   7,C   4,H  10)      0.0019         0.027720   
     82. D(H  12,C   7,C   4,C   2)   -179.9999         0.027720   
     83. D(C   5,C   7,C   4,H  10)   -179.9991         0.027720   
     84. D(H  12,C   7,C   5,C   6)    179.9994         0.023370   
     85. D(C   5,C   7,C   4,C   2)     -0.0008         0.027720   
     86. D(H  12,C   7,C   5,C   8)      0.0004         0.023370   
     87. D(H  17,O  15,C   2,N   0)    102.5574         0.002343   
     88. D(H  16,O  15,C   2,C   3)     26.2442         0.002343   
     89. D(H  16,O  15,C   2,N   0)    -97.5842         0.002343   
     90. D(N   0,O  15,C   2,C   4)   -103.1914         0.002343   
     91. D(N   0,O  15,C   2,C   3)    123.8283         0.002343   
     92. D(H  17,O  15,N   0,C   2)    -88.6098         0.046022   
     93. D(H  16,O  15,N   0,H  14)     25.1889         0.046022   
     94. D(H  16,O  15,N   0,H  13)    -90.6965         0.046022   
     95. D(H  16,O  15,N   0,C   2)    148.1563         0.046022   
     96. D(H  16,O  15,C   2,C   4)    159.2244         0.002343   
     97. D(C   2,O  15,N   0,H  14)   -122.9674         0.046022   
     98. D(C   2,O  15,N   0,H  13)    121.1472         0.046022   
    -----------------------------------------------------------------

Number of atoms                         .... 18
Number of degrees of freedom            .... 98


         *************************************************************
         *                GEOMETRY OPTIMIZATION CYCLE   1            *
         *************************************************************
---------------------------------
CARTESIAN COORDINATES (ANGSTROEM)
---------------------------------
  N      2.734350    3.901040    0.797540
  N     -4.058980    3.901230    0.797030
  C      1.367860    3.901070    0.797290
  C      0.641180    2.688330    0.797270
  C      0.641250    5.113850    0.797240
  C     -1.465860    3.901150    0.797170
  C     -0.745620    2.690350    0.797210
  C     -0.745560    5.111900    0.797190
  C     -2.896480    3.901190    0.797090
  H      1.181860    1.738260    0.797310
  H      1.181970    6.063900    0.797270
  H     -1.289030    1.743410    0.797180
  H     -1.288920    6.058870    0.797150
  H      3.253220    4.766690    0.796220
  H      3.253180    3.035360    0.796240
  O      2.639530    3.505670    2.056820
  H      3.216080    2.934830    2.582780
  H      2.598420    4.317450    2.580410

----------------------------
CARTESIAN COORDINATES (A.U.)
----------------------------
  NO LB      ZA    FRAG     MASS         X           Y           Z
   0 N     7.0000    0    14.007    5.167173    7.371897    1.507132
   1 N     7.0000    0    14.007   -7.670361    7.372256    1.506168
   2 C     6.0000    0    12.011    2.584881    7.371954    1.506660
   3 C     6.0000    0    12.011    1.211655    5.080207    1.506622
   4 C     6.0000    0    12.011    1.211787    9.663776    1.506565
   5 C     6.0000    0    12.011   -2.770074    7.372105    1.506433
   6 C     6.0000    0    12.011   -1.409018    5.084025    1.506509
   7 C     6.0000    0    12.011   -1.408904    9.660091    1.506471
   8 C     6.0000    0    12.011   -5.473554    7.372181    1.506282
   9 H     1.0000    0     1.008    2.233392    3.284835    1.506698
  10 H     1.0000    0     1.008    2.233600   11.459110    1.506622
  11 H     1.0000    0     1.008   -2.435914    3.294567    1.506452
  12 H     1.0000    0     1.008   -2.435706   11.449605    1.506395
  13 H     1.0000    0     1.008    6.147695    9.007739    1.504638
  14 H     1.0000    0     1.008    6.147619    5.735999    1.504676
  15 O     8.0000    0    15.999    4.987989    6.624756    3.886827
  16 H     1.0000    0     1.008    6.077510    5.546025    4.880747
  17 H     1.0000    0     1.008    4.910302    8.158798    4.876268

--------------------------------
INTERNAL COORDINATES (ANGSTROEM)
--------------------------------
 N      0   0   0     0.000000000000     0.00000000     0.00000000
 N      1   0   0     6.793330021801     0.00000000     0.00000000
 C      1   2   0     1.366490023198     0.00619049     0.00000000
 C      3   1   2     1.413789988082   120.92899821   266.81417735
 C      3   1   4     1.413788323265   120.92824756   179.99074581
 C      4   3   1     2.431162257851    91.00536698   179.99060861
 C      4   3   1     1.386801472454   120.84680006   179.99066902
 C      5   3   1     1.386811371853   120.84642608   180.00980978
 C      2   1   3     1.162500002237     0.00139392    12.15850103
 H      4   3   1     1.093145858932   119.42575951     0.00000000
 H      5   3   1     1.093148261582   119.42668549     0.00000000
 H      7   4   3     1.091782850479   119.76628866   179.99906768
 H      8   5   3     1.091783986006   119.76612185   180.00011030
 H      1   2   9     1.009246125482   120.93680408   105.25971455
 H      1   2   9     1.009251267673   120.93718669   285.43828061
 O      1   2   9     1.323289230554    85.89554600   212.78014642
 H     16   1   2     0.966903371439   130.64097323   148.15850126
 H     16   1   2     0.966862600683   105.51746690   271.39236493

---------------------------
INTERNAL COORDINATES (A.U.)
---------------------------
 N      0   0   0     0.000000000000     0.00000000     0.00000000
 N      1   0   0    12.837533278549     0.00000000     0.00000000
 C      1   2   0     2.582291908580     0.00619049     0.00000000
 C      3   1   2     2.671675888354   120.92899821   266.81417735
 C      3   1   4     2.671672742306   120.92824756   179.99074581
 C      4   3   1     4.594230854464    91.00536698   179.99060861
 C      4   3   1     2.620674985056   120.84680006   179.99066902
 C      5   3   1     2.620693692209   120.84642608   180.00980978
 C      2   1   3     2.196806634910     0.00139392    12.15850103
 H      4   3   1     2.065746297811   119.42575951     0.00000000
 H      5   3   1     2.065750838162   119.42668549     0.00000000
 H      7   4   3     2.063170585117   119.76628866   179.99906768
 H      8   5   3     2.063172730953   119.76612185   180.00011030
 H      1   2   9     1.907198778882   120.93680408   105.25971455
 H      1   2   9     1.907208496215   120.93718669   285.43828061
 O      1   2   9     2.500654241714    85.89554600   212.78014642
 H     16   1   2     1.827182569985   130.64097323   148.15850126
 H     16   1   2     1.827105524422   105.51746690   271.39236493

---------------------
BASIS SET INFORMATION
---------------------
There are 4 groups of distinct atoms

 Group   1 Type N   : 7s4p1d contracted to 3s2p1d pattern {511/31/1}
 Group   2 Type C   : 7s4p1d contracted to 3s2p1d pattern {511/31/1}
 Group   3 Type H   : 4s1p contracted to 2s1p pattern {31/1}
 Group   4 Type O   : 7s4p1d contracted to 3s2p1d pattern {511/31/1}

Atom   0N    basis set group =>   1
Atom   1N    basis set group =>   1
Atom   2C    basis set group =>   2
Atom   3C    basis set group =>   2
Atom   4C    basis set group =>   2
Atom   5C    basis set group =>   2
Atom   6C    basis set group =>   2
Atom   7C    basis set group =>   2
Atom   8C    basis set group =>   2
Atom   9H    basis set group =>   3
Atom  10H    basis set group =>   3
Atom  11H    basis set group =>   3
Atom  12H    basis set group =>   3
Atom  13H    basis set group =>   3
Atom  14H    basis set group =>   3
Atom  15O    basis set group =>   4
Atom  16H    basis set group =>   3
Atom  17H    basis set group =>   3
---------------------------------
AUXILIARY/J BASIS SET INFORMATION
---------------------------------
There are 4 groups of distinct atoms

 Group   1 Type N   : 12s5p4d2f1g contracted to 6s4p3d1f1g pattern {711111/2111/211/2/1}
 Group   2 Type C   : 12s5p4d2f1g contracted to 6s4p3d1f1g pattern {711111/2111/211/2/1}
 Group   3 Type H   : 5s2p1d contracted to 3s1p1d pattern {311/2/1}
 Group   4 Type O   : 12s5p4d2f1g contracted to 6s4p3d1f1g pattern {711111/2111/211/2/1}

Atom   0N    basis set group =>   1
Atom   1N    basis set group =>   1
Atom   2C    basis set group =>   2
Atom   3C    basis set group =>   2
Atom   4C    basis set group =>   2
Atom   5C    basis set group =>   2
Atom   6C    basis set group =>   2
Atom   7C    basis set group =>   2
Atom   8C    basis set group =>   2
Atom   9H    basis set group =>   3
Atom  10H    basis set group =>   3
Atom  11H    basis set group =>   3
Atom  12H    basis set group =>   3
Atom  13H    basis set group =>   3
Atom  14H    basis set group =>   3
Atom  15O    basis set group =>   4
Atom  16H    basis set group =>   3
Atom  17H    basis set group =>   3
--------------------------------------------------------------------------
By default, for Open MPI 4.0 and later, infiniband ports on a device
are not used by default.  The intent is to use UCX for these devices.
You can override this policy by setting the btl_openib_allow_ib MCA parameter
to true.

  Local host:              psid01
  Local adapter:           mlx5_0
  Local port:              1

--------------------------------------------------------------------------
--------------------------------------------------------------------------
WARNING: There was an error initializing an OpenFabrics device.

  Local host:   psid01
  Local device: mlx5_0
--------------------------------------------------------------------------


           ************************************************************
           *        Program running with 10 parallel MPI-processes    *
           *              working on a common directory               *
           ************************************************************
------------------------------------------------------------------------------
                             ORCA STARTUP CALCULATIONS
                           -- RI-GTO INTEGRALS CHOSEN --
------------------------------------------------------------------------------
------------------------------------------------------------------------------
                   ___                                                        
                  /   \      - P O W E R E D   B Y -                         
                 /     \                                                     
                 |  |  |   _    _      __       _____    __    __             
                 |  |  |  | |  | |    /  \     |  _  \  |  |  /  |          
                  \  \/   | |  | |   /    \    | | | |  |  | /  /          
                 / \  \   | |__| |  /  /\  \   | |_| |  |  |/  /          
                |  |  |   |  __  | /  /__\  \  |    /   |      \           
                |  |  |   | |  | | |   __   |  |    \   |  |\   \          
                \     /   | |  | | |  |  |  |  | |\  \  |  | \   \       
                 \___/    |_|  |_| |__|  |__|  |_| \__\ |__|  \__/        
                                                                              
                      - O R C A' S   B I G   F R I E N D -                    
                                      &                                       
                       - I N T E G R A L  F E E D E R -                       
                                                                              
 v1 FN, 2020, v2 2021, v3 2022-2024                                           
------------------------------------------------------------------------------


----------------------
SHARK INTEGRAL PACKAGE
----------------------

Number of atoms                             ...     18
Number of basis functions                   ...    180
Number of shells                            ...     84
Maximum angular momentum                    ...      2
Integral batch strategy                     ... SHARK/LIBINT Hybrid
RI-J (if used) integral strategy            ... SPLIT-RIJ (Revised 2003 algorithm where possible)
Printlevel                                  ...      1
Contraction scheme used                     ... SEGMENTED contraction
Prescreening option                         ... SCHWARTZ
   Thresh                                   ... 2.500e-11
   Tcut                                     ... 2.500e-12
   Tpresel                                  ... 2.500e-12 
Coulomb Range Separation                    ... NOT USED
Exchange Range Separation                   ... NOT USED
Multipole approximations                    ... NOT USED
Finite Nucleus Model                        ... NOT USED
CABS basis                                  ... NOT available
Auxiliary Coulomb fitting basis             ... AVAILABLE
   # of basis functions in Aux-J            ...    578
   # of shells in Aux-J                     ...    190
   Maximum angular momentum in Aux-J        ...      4
Auxiliary J/K fitting basis                 ... NOT available
Auxiliary Correlation fitting basis         ... NOT available
Auxiliary 'external' fitting basis          ... NOT available

Checking pre-screening integrals            ... done (  0.0 sec) Dimension = 84
Check shell pair data                       ... done (  0.0 sec)
Shell pair information
Shell pair cut-off parameter TPreSel        ...   2.5e-12
Total number of shell pairs                 ...      3570
Shell pairs after pre-screening             ...      3231
Total number of primitive shell pairs       ...     13034
Primitive shell pairs kept                  ...      8504
          la=0 lb=0:    983 shell pairs
          la=1 lb=0:   1174 shell pairs
          la=1 lb=1:    375 shell pairs
          la=2 lb=0:    403 shell pairs
          la=2 lb=1:    248 shell pairs
          la=2 lb=2:     48 shell pairs

Calculating one electron integrals          ... done (  0.0 sec)
Calculating RI/J V-Matrix + Cholesky decomp.... done (  0.0 sec)
Calculating Nuclear repulsion               ... done (  0.0 sec) ENN=    495.716384167173 Eh

Diagonalization of the overlap matrix:
Smallest eigenvalue                        ... 2.700e-04
Time for diagonalization                   ...    0.003 sec
Threshold for overlap eigenvalues          ... 1.000e-07
Number of eigenvalues below threshold      ... 0
Time for construction of square roots      ...    0.002 sec
Total time needed                          ...    0.010 sec

-------------------
DFT GRID GENERATION
-------------------

General Integration Accuracy     IntAcc      ... 4.388
Radial Grid Type                 RadialGrid  ... OptM3 with GC (2021)
Angular Grid (max. ang.)         AngularGrid ... 4 (Lebedev-302)
Angular grid pruning method      GridPruning ... 4 (adaptive)
Weight generation scheme         WeightScheme... mBecke (2022)
Basis function cutoff            BFCut       ... 1.0000e-11
Integration weight cutoff        WCut        ... 1.0000e-14
Partially contracted basis set               ... off
Rotationally invariant grid construction     ... off
Angular grids for H and He will be reduced by one unit

Total number of grid points                  ...    85695
Total number of batches                      ...     1348
Average number of points per batch           ...       63
Average number of grid points per atom       ...     4761

--------------------
COSX GRID GENERATION
--------------------

GRIDX 1
-------
General Integration Accuracy     IntAcc      ... 3.816
Radial Grid Type                 RadialGrid  ... OptM3 with GC (2021)
Angular Grid (max. ang.)         AngularGrid ... 1 (Lebedev-50)
Angular grid pruning method      GridPruning ... 4 (adaptive)
Weight generation scheme         WeightScheme... mBecke (2022)
Basis function cutoff            BFCut       ... 1.0000e-11
Integration weight cutoff        WCut        ... 1.0000e-14
Partially contracted basis set               ... on
Rotationally invariant grid construction     ... off
Angular grids for H and He will be reduced by one unit

Total number of grid points                  ...    10941
Total number of batches                      ...       95
Average number of points per batch           ...      115
Average number of grid points per atom       ...      608
UseSFitting                                  ... on

GRIDX 2
-------
General Integration Accuracy     IntAcc      ... 4.020
Radial Grid Type                 RadialGrid  ... OptM3 with GC (2021)
Angular Grid (max. ang.)         AngularGrid ... 2 (Lebedev-110)
Angular grid pruning method      GridPruning ... 4 (adaptive)
Weight generation scheme         WeightScheme... mBecke (2022)
Basis function cutoff            BFCut       ... 1.0000e-11
Integration weight cutoff        WCut        ... 1.0000e-14
Partially contracted basis set               ... on
Rotationally invariant grid construction     ... off
Angular grids for H and He will be reduced by one unit

Total number of grid points                  ...    23921
Total number of batches                      ...      197
Average number of points per batch           ...      121
Average number of grid points per atom       ...     1329
UseSFitting                                  ... on

GRIDX 3
-------
General Integration Accuracy     IntAcc      ... 4.338
Radial Grid Type                 RadialGrid  ... OptM3 with GC (2021)
Angular Grid (max. ang.)         AngularGrid ... 3 (Lebedev-194)
Angular grid pruning method      GridPruning ... 4 (adaptive)
Weight generation scheme         WeightScheme... mBecke (2022)
Basis function cutoff            BFCut       ... 1.0000e-11
Integration weight cutoff        WCut        ... 1.0000e-14
Partially contracted basis set               ... on
Rotationally invariant grid construction     ... off
Angular grids for H and He will be reduced by one unit

Total number of grid points                  ...    52631
Total number of batches                      ...      419
Average number of points per batch           ...      125
Average number of grid points per atom       ...     2924
UseSFitting                                  ... on
Initializing property integral containers    ... done (  0.0 sec)

SHARK setup successfully completed in   1.0 seconds

Maximum memory used throughout the entire STARTUP-calculation: 23.0 MB
[psid01:188656] 9 more processes have sent help message help-mpi-btl-openib.txt / ib port not selected
[psid01:188656] Set MCA parameter "orte_base_help_aggregate" to 0 to see all help / error messages
[psid01:188656] 9 more processes have sent help message help-mpi-btl-openib.txt / error in device init
--------------------------------------------------------------------------
By default, for Open MPI 4.0 and later, infiniband ports on a device
are not used by default.  The intent is to use UCX for these devices.
You can override this policy by setting the btl_openib_allow_ib MCA parameter
to true.

  Local host:              psid01
  Local adapter:           mlx5_0
  Local port:              1

--------------------------------------------------------------------------
--------------------------------------------------------------------------
WARNING: There was an error initializing an OpenFabrics device.

  Local host:   psid01
  Local device: mlx5_0
--------------------------------------------------------------------------


           ************************************************************
           *        Program running with 10 parallel MPI-processes    *
           *              working on a common directory               *
           ************************************************************
-------------------------------------------------------------------------------
                                 ORCA GUESS
                   Start orbitals & Density for SCF / CASSCF
-------------------------------------------------------------------------------

------------
SCF SETTINGS
------------
Hamiltonian:
 Density Functional     Method          .... DFT(GTOs)
 Exchange Functional    Exchange        .... B88
   X-Alpha parameter    XAlpha          ....  0.666667
   Becke's b parameter  XBeta           ....  0.004200
 Correlation Functional Correlation     .... LYP
 LDA part of GGA corr.  LDAOpt          .... VWN-5
 Gradients option       PostSCFGGA      .... off
 Hybrid DFT is turned on
   Fraction HF Exchange ScalHFX         ....  0.200000
   Scaling of DF-GGA-X  ScalDFX         ....  0.720000
   Scaling of DF-GGA-C  ScalDFC         ....  0.810000
   Scaling of DF-LDA-C  ScalLDAC        ....  1.000000
   Perturbative correction              ....  0.000000
   NL short-range parameter             ....  4.800000
 RI-approximation to the Coulomb term is turned on
   Number of AuxJ basis functions       .... 578
   RIJ-COSX (HFX calculated with COS-X)).... on


General Settings:
 Integral files         IntName         .... 4nitroaniline_water_2
 Hartree-Fock type      HFTyp           .... RHF
 Total Charge           Charge          ....    0
 Multiplicity           Mult            ....    1
 Number of Electrons    NEL             ....   72
 Basis Dimension        Dim             ....  180
 Nuclear Repulsion      ENuc            ....    495.7163841672 Eh

Convergence Acceleration:
 AO-DIIS                CNVDIIS         .... on
   Start iteration      DIISMaxIt       ....    12
   Startup error        DIISStart       ....  0.200000
   # of expansion vecs  DIISMaxEq       ....     5
   Bias factor          DIISBfac        ....   1.050
   Max. coefficient     DIISMaxC        ....  10.000
 MO-DIIS                CNVKDIIS        .... off
 Trust-Rad. Augm. Hess. CNVTRAH         .... auto
   Auto Start mean grad. ratio tolernc. ....  1.125000
   Auto Start start iteration           ....    50
   Auto Start num. interpolation iter.  ....    10
   Max. Number of Micro iterations      ....    24
   Max. Number of Macro iterations      .... Maxiter - #DIIS iter
   Number of Davidson start vectors     ....     2
   Converg. threshold    (grad. norm)   ....   1.000e-05
   Grad. Scal. Fac. for Micro threshold ....   0.100
   Minimum threshold for Micro iter.    ....   1.000e-02
   NR start threshold (gradient norm)   ....   1.000e-04
   Initial trust radius                 ....   0.400
   Minimum AH scaling param. (alpha)    ....   1.000
   Maximum AH scaling param. (alpha)    .... 1000.000
   Quad. conv. algorithm                .... NR
   White noise on init. David. guess    .... on
   Maximum white noise                  ....   0.010
   Pseudo random numbers                .... off
   Inactive MOs                         .... canonical
   Orbital update algorithm             .... Taylor
   Preconditioner                       .... Diag
   Full preconditioner red. dimension   ....   250
 SOSCF                  CNVSOSCF        .... on
   Start iteration      SOSCFMaxIt      ....   150
   Startup grad/error   SOSCFStart      ....  0.003300
   Hessian update       SOSCFHessUp     .... L-BFGS
 Level Shifting         CNVShift        .... on
   Level shift para.    LevelShift      ....    0.2500
   Turn off err/grad.   ShiftErr        ....    0.0010
 Zerner damping         CNVZerner       .... off
 Static damping         CNVDamp         .... on
   Fraction old density DampFac         ....    0.7000
   Max. Damping (<1)    DampMax         ....    0.9800
   Min. Damping (>=0)   DampMin         ....    0.0000
   Turn off err/grad.   DampErr         ....    0.1000

SCF Procedure:
 Maximum # iterations   MaxIter         ....   125
 SCF integral mode      SCFMode         .... Direct
   Integral package                     .... SHARK and LIBINT hybrid scheme
 Reset frequency        DirectResetFreq ....    20
 Integral Threshold     Thresh          ....  2.500e-11 Eh
 Primitive CutOff       TCut            ....  2.500e-12 Eh

Convergence Tolerance:
 Convergence Check Mode ConvCheckMode   .... Total+1el-Energy
 Convergence forced     ConvForced      .... 0
 Energy Change          TolE            ....  1.000e-08 Eh
 1-El. energy change                    ....  1.000e-05 Eh
 Orbital Gradient       TolG            ....  1.000e-05
 Orbital Rotation angle TolX            ....  1.000e-05
 DIIS Error             TolErr          ....  5.000e-07

------------------------------
INITIAL GUESS: MODEL POTENTIAL
------------------------------
Loading Hartree-Fock densities                     ... done
Calculating cut-offs                               ... done
Initializing the effective Hamiltonian             ... done
Setting up the integral package (SHARK)            ... done
Starting the Coulomb interaction                   ... done (   0.0 sec)
Making the grid                                    ... done (   0.1 sec)
Mapping shells                                     ... done
Starting the XC term evaluation                    ... done (   0.0 sec)
  promolecular density results
     # of electrons  =     71.996926288
     EX              =    -59.844360828
     EC              =     -2.459225439
     EX+EC           =    -62.303586267
Transforming the Hamiltonian                       ... done (   0.0 sec)
Diagonalizing the Hamiltonian                      ... done (   0.0 sec)
Back transforming the eigenvectors                 ... done (   0.0 sec)
Now organizing SCF variables                       ... done
                      ------------------
                      INITIAL GUESS DONE (   0.2 sec)
                      ------------------
             **** ENERGY FILE WAS UPDATED (4nitroaniline_water_2.en.tmp) ****
Finished Guess after   0.5 sec
Maximum memory used throughout the entire GUESS-calculation: 13.1 MB
[psid01:188755] 9 more processes have sent help message help-mpi-btl-openib.txt / ib port not selected
[psid01:188755] Set MCA parameter "orte_base_help_aggregate" to 0 to see all help / error messages
[psid01:188755] 9 more processes have sent help message help-mpi-btl-openib.txt / error in device init
--------------------------------------------------------------------------
By default, for Open MPI 4.0 and later, infiniband ports on a device
are not used by default.  The intent is to use UCX for these devices.
You can override this policy by setting the btl_openib_allow_ib MCA parameter
to true.

  Local host:              psid01
  Local adapter:           mlx5_0
  Local port:              1

--------------------------------------------------------------------------
--------------------------------------------------------------------------
WARNING: There was an error initializing an OpenFabrics device.

  Local host:   psid01
  Local device: mlx5_0
--------------------------------------------------------------------------


           ************************************************************
           *        Program running with 10 parallel MPI-processes    *
           *              working on a common directory               *
           ************************************************************

-------------------------------------------------------------------------------------------
                                      ORCA LEAN-SCF
                              memory conserving SCF solver
-------------------------------------------------------------------------------------------

----------------------------------------D-I-I-S--------------------------------------------
Iteration    Energy (Eh)           Delta-E    RMSDP     MaxDP     DIISErr   Damp  Time(sec)
-------------------------------------------------------------------------------------------
               ***  Starting incremental Fock matrix formation  ***
    1    -454.5542269141249108     0.00e+00  1.46e-02  4.52e-01  2.78e-01  0.700   0.6
Warning: op=0 Small HOMO/LUMO gap (  -0.494) - skipping pre-diagonalization
         LevelShift set to 0.594 Eh
         Will do a full diagonalization
    2    -454.7323744722275478    -1.78e-01  9.74e-03  3.63e-01  1.16e-01  0.700   0.4
                               ***Turning on AO-DIIS***
    3    -454.6759457452460538     5.64e-02  5.17e-03  2.25e-01  8.87e-02  0.700   0.4
    4    -454.7630028997651834    -8.71e-02  1.40e-02  4.42e-01  1.07e-01  0.000   0.4
    5    -455.0693036776384588    -3.06e-01  1.44e-03  4.66e-02  1.19e-01  0.700   0.4
    6    -455.0956059187573146    -2.63e-02  1.85e-03  6.58e-02  1.11e-01  0.700   0.4
    7    -455.1244953117395653    -2.89e-02  1.90e-03  7.32e-02  9.87e-02  0.700   0.4
    8    -455.1495781878392108    -2.51e-02  5.77e-03  2.32e-01  8.84e-02  0.000   0.4
    9    -455.2098036936114340    -6.02e-02  1.69e-03  3.72e-02  3.90e-02  0.000   0.4
   10    -455.2171266215481182    -7.32e-03  8.43e-04  2.55e-02  1.41e-02  0.000   0.4
   11    -455.2192058793417573    -2.08e-03  5.56e-04  1.85e-02  6.27e-03  0.000   0.4
[psid01:188790] 9 more processes have sent help message help-mpi-btl-openib.txt / ib port not selected
[psid01:188790] Set MCA parameter "orte_base_help_aggregate" to 0 to see all help / error messages
[psid01:188790] 9 more processes have sent help message help-mpi-btl-openib.txt / error in device init
   12    -455.2200667512086056    -8.61e-04  4.20e-04  1.40e-02  4.33e-03  0.000   0.4
                              *** Initializing SOSCF ***
---------------------------------------S-O-S-C-F--------------------------------------
Iteration    Energy (Eh)           Delta-E    RMSDP     MaxDP     MaxGrad    Time(sec)
--------------------------------------------------------------------------------------
   13    -455.2205182474077674    -4.51e-04  3.27e-04  9.94e-03  2.92e-03     0.4
               *** Restarting incremental Fock matrix formation ***
   14    -455.2206848420823917    -1.67e-04  1.20e-03  3.94e-02  3.21e-03     0.6
   15    -455.2209883727721262    -3.04e-04  7.45e-04  2.47e-02  1.55e-03     0.5
   16    -455.2210227348894023    -3.44e-05  3.37e-04  1.30e-02  1.39e-03     0.5
   17    -455.2211006363804700    -7.79e-05  1.24e-04  2.64e-03  4.30e-04     0.5
   18    -455.2211045365670543    -3.90e-06  9.36e-05  2.81e-03  2.68e-04     0.5
   19    -455.2211104466811094    -5.91e-06  3.76e-05  9.89e-04  8.60e-05     0.5
   20    -455.2211105746813473    -1.28e-07  1.62e-05  2.70e-04  8.12e-05     0.5
   21    -455.2211111192285671    -5.45e-07  7.69e-06  2.44e-04  2.93e-05     0.5
   22    -455.2211111045829739     1.46e-08  3.99e-06  1.07e-04  4.30e-05     0.4
   23    -455.2211111353379920    -3.08e-08  2.61e-06  6.91e-05  1.83e-05     0.4
   24    -455.2211111303513462     4.99e-09  1.76e-06  5.77e-05  1.91e-05     0.4
                 **** Energy Check signals convergence ****

               *****************************************************
               *                     SUCCESS                       *
               *           SCF CONVERGED AFTER  24 CYCLES          *
               *****************************************************

Recomputing exchange energy using gridx3       ... done (    0.773 sec)
Old exchange energy                            :    -12.090953775 Eh
New exchange energy                            :    -12.090974549 Eh
Exchange energy change after final integration :     -0.000020774 Eh
Total energy after final integration           :   -455.221131904 Eh
             **** ENERGY FILE WAS UPDATED (4nitroaniline_water_2.en.tmp) ****

----------------
TOTAL SCF ENERGY
----------------

Total Energy       :       -455.22113190386767 Eh          -12387.19675 eV

Components:
Nuclear Repulsion  :        495.71638416717303 Eh           13489.12859 eV
Electronic Energy  :       -950.93749529752438 Eh          -25876.32477 eV
One Electron Energy:      -1597.33576384327307 Eh          -43465.71589 eV
Two Electron Energy:        646.39826854574869 Eh           17589.39111 eV

Virial components:
Potential Energy   :       -908.12203508371931 Eh          -24711.25687 eV
Kinetic Energy     :        452.90090317985164 Eh           12324.06012 eV
Virial Ratio       :          2.00512303841243

DFT components:
N(Alpha)           :       36.000005927366 electrons
N(Beta)            :       36.000005927366 electrons
N(Total)           :       72.000011854733 electrons
E(X)               :      -48.131013931022 Eh       
E(C)               :       -2.893648156992 Eh       
E(XC)              :      -51.024662088014 Eh       

---------------
SCF CONVERGENCE
---------------

  Last Energy change         ...   -4.9866e-09  Tolerance :   1.0000e-08
  Last MAX-Density change    ...    5.7729e-05  Tolerance :   1.0000e-07
  Last RMS-Density change    ...    1.7643e-06  Tolerance :   5.0000e-09
  Last DIIS Error            ...    2.9240e-03  Tolerance :   5.0000e-07
  Last Orbital Gradient      ...    1.9120e-05  Tolerance :   1.0000e-05
  Last Orbital Rotation      ...    2.8160e-05  Tolerance :   1.0000e-05


----------------
ORBITAL ENERGIES
----------------

  NO   OCC          E(Eh)            E(eV) 
   0   2.0000     -19.280709      -524.6548 
   1   2.0000     -14.505257      -394.7081 
   2   2.0000     -14.287275      -388.7765 
   3   2.0000     -10.246191      -278.8130 
   4   2.0000     -10.199970      -277.5553 
   5   2.0000     -10.199782      -277.5502 
   6   2.0000     -10.196071      -277.4492 
   7   2.0000     -10.195140      -277.4239 
   8   2.0000     -10.191411      -277.3224 
   9   2.0000     -10.190966      -277.3103 
  10   2.0000      -1.301316       -35.4106 
  11   2.0000      -0.985490       -26.8165 
  12   2.0000      -0.866909       -23.5898 
  13   2.0000      -0.849949       -23.1283 
  14   2.0000      -0.786521       -21.4023 
  15   2.0000      -0.766105       -20.8468 
  16   2.0000      -0.735185       -20.0054 
  17   2.0000      -0.712656       -19.3923 
  18   2.0000      -0.665915       -18.1205 
  19   2.0000      -0.610401       -16.6098 
  20   2.0000      -0.571739       -15.5578 
  21   2.0000      -0.543574       -14.7914 
  22   2.0000      -0.541707       -14.7406 
  23   2.0000      -0.483968       -13.1694 
  24   2.0000      -0.457851       -12.4588 
  25   2.0000      -0.446387       -12.1468 
  26   2.0000      -0.430530       -11.7153 
  27   2.0000      -0.405292       -11.0286 
  28   2.0000      -0.379316       -10.3217 
  29   2.0000      -0.359653        -9.7866 
  30   2.0000      -0.324467        -8.8292 
  31   2.0000      -0.322704        -8.7812 
  32   2.0000      -0.302031        -8.2187 
  33   2.0000      -0.266010        -7.2385 
  34   2.0000      -0.246074        -6.6960 
  35   2.0000      -0.114792        -3.1236 
  36   0.0000      -0.038509        -1.0479 
  37   0.0000      -0.015889        -0.4324 
  38   0.0000      -0.005367        -0.1461 
  39   0.0000       0.021940         0.5970 
  40   0.0000       0.050744         1.3808 
  41   0.0000       0.062650         1.7048 
  42   0.0000       0.066555         1.8111 
  43   0.0000       0.071637         1.9493 
  44   0.0000       0.102522         2.7898 
  45   0.0000       0.103551         2.8178 
  46   0.0000       0.122781         3.3410 
*Only the first 10 virtual orbitals were printed.

                    ********************************
                    * MULLIKEN POPULATION ANALYSIS *
                    ********************************

-----------------------
MULLIKEN ATOMIC CHARGES
-----------------------
   0 N :    0.239294
   1 N :    0.022783
   2 C :   -0.026491
   3 C :   -0.002539
   4 C :   -0.001169
   5 C :   -0.120074
   6 C :    0.046768
   7 C :    0.031063
   8 C :   -0.140823
   9 H :   -0.044905
  10 H :   -0.051962
  11 H :   -0.016324
  12 H :   -0.020045
  13 H :    0.103424
  14 H :   -0.055687
  15 O :    0.250170
  16 H :   -0.189747
  17 H :   -0.023736
Sum of atomic charges:    0.0000000

--------------------------------
MULLIKEN REDUCED ORBITAL CHARGES
--------------------------------
  0 N s       :     3.234710  s :     3.234710
      pz      :     1.216043  p :     3.463126
      px      :     1.169292
      py      :     1.077791
      dz2     :     0.027860  d :     0.062870
      dxz     :     0.010517
      dyz     :     0.010451
      dx2y2   :     0.005053
      dxy     :     0.008988

  1 N s       :     3.526005  s :     3.526005
      pz      :     1.110109  p :     3.420128
      px      :     1.282794
      py      :     1.027226
      dz2     :     0.002949  d :     0.031083
      dxz     :     0.009498
      dyz     :     0.000000
      dx2y2   :     0.008773
      dxy     :     0.009863

  2 C s       :     2.967603  s :     2.967603
      pz      :     1.075141  p :     2.995408
      px      :     0.828288
      py      :     1.091980
      dz2     :     0.006293  d :     0.063479
      dxz     :     0.013934
      dyz     :     0.008248
      dx2y2   :     0.021803
      dxy     :     0.013201

  3 C s       :     3.192932  s :     3.192932
      pz      :     1.098979  p :     2.776462
      px      :     0.871847
      py      :     0.805636
      dz2     :     0.002741  d :     0.033145
      dxz     :     0.005429
      dyz     :     0.003317
      dx2y2   :     0.008795
      dxy     :     0.012863

  4 C s       :     3.201862  s :     3.201862
      pz      :     1.083913  p :     2.764364
      px      :     0.880420
      py      :     0.800031
      dz2     :     0.002671  d :     0.034944
      dxz     :     0.006873
      dyz     :     0.003529
      dx2y2   :     0.008882
      dxy     :     0.012989

  5 C s       :     3.036076  s :     3.036076
      pz      :     1.140574  p :     3.041374
      px      :     0.953526
      py      :     0.947274
      dz2     :     0.003308  d :     0.042624
      dxz     :     0.005670
      dyz     :     0.005754
      dx2y2   :     0.014722
      dxy     :     0.013170

  6 C s       :     3.222752  s :     3.222752
      pz      :     0.944681  p :     2.693463
      px      :     0.897607
      py      :     0.851174
      dz2     :     0.002663  d :     0.037018
      dxz     :     0.008125
      dyz     :     0.003825
      dx2y2   :     0.010577
      dxy     :     0.011827

  7 C s       :     3.217930  s :     3.217930
      pz      :     0.976785  p :     2.714728
      px      :     0.887903
      py      :     0.850040
      dz2     :     0.002674  d :     0.036280
      dxz     :     0.007527
      dyz     :     0.003799
      dx2y2   :     0.010606
      dxy     :     0.011674

  8 C s       :     3.113722  s :     3.113722
      pz      :     0.965030  p :     2.979401
      px      :     1.040821
      py      :     0.973549
      dz2     :     0.003404  d :     0.047701
      dxz     :     0.020353
      dyz     :     0.000043
      dx2y2   :     0.009415
      dxy     :     0.014486

  9 H s       :     1.021291  s :     1.021291
      pz      :     0.005651  p :     0.023614
      px      :     0.005779
      py      :     0.012185

 10 H s       :     1.028529  s :     1.028529
      pz      :     0.005608  p :     0.023433
      px      :     0.005641
      py      :     0.012183

 11 H s       :     0.993444  s :     0.993444
      pz      :     0.004507  p :     0.022880
      px      :     0.006398
      py      :     0.011975

 12 H s       :     0.997048  s :     0.997048
      pz      :     0.004763  p :     0.022998
      px      :     0.006344
      py      :     0.011891

 13 H s       :     0.850818  s :     0.850818
      pz      :     0.009632  p :     0.045757
      px      :     0.012729
      py      :     0.023396

 14 H s       :     1.003879  s :     1.003879
      pz      :     0.013737  p :     0.051808
      px      :     0.014214
      py      :     0.023858

 15 O s       :     3.500520  s :     3.500520
      pz      :     1.136652  p :     4.227376
      px      :     1.725053
      py      :     1.365671
      dz2     :     0.004647  d :     0.021934
      dxz     :     0.005974
      dyz     :     0.007140
      dx2y2   :     0.001970
      dxy     :     0.002202

 16 H s       :     1.127327  s :     1.127327
      pz      :     0.018198  p :     0.062420
      px      :     0.020219
      py      :     0.024003

 17 H s       :     0.955704  s :     0.955704
      pz      :     0.020391  p :     0.068032
      px      :     0.014158
      py      :     0.033482



                     *******************************
                     * LOEWDIN POPULATION ANALYSIS *
                     *******************************

----------------------
LOEWDIN ATOMIC CHARGES
----------------------
   0 N :    0.287845
   1 N :   -0.110936
   2 C :   -0.051366
   3 C :   -0.090153
   4 C :   -0.079738
   5 C :   -0.131443
   6 C :    0.021226
   7 C :   -0.001920
   8 C :   -0.044441
   9 H :    0.018165
  10 H :    0.017064
  11 H :    0.037100
  12 H :    0.034741
  13 H :    0.069277
  14 H :   -0.022982
  15 O :    0.263261
  16 H :   -0.176446
  17 H :   -0.039252

-------------------------------
LOEWDIN REDUCED ORBITAL CHARGES
-------------------------------
  0 N s       :     2.987698  s :     2.987698
      pz      :     1.174734  p :     3.565834
      px      :     1.215460
      py      :     1.175640
      dz2     :     0.080180  d :     0.158623
      dxz     :     0.017920
      dyz     :     0.022388
      dx2y2   :     0.013694
      dxy     :     0.024441

  1 N s       :     3.424937  s :     3.424937
      pz      :     1.118286  p :     3.633342
      px      :     1.473358
      py      :     1.041698
      dz2     :     0.006351  d :     0.052657
      dxz     :     0.013441
      dyz     :     0.000000
      dx2y2   :     0.018989
      dxy     :     0.013877

  2 C s       :     2.838517  s :     2.838517
      pz      :     1.034030  p :     3.056420
      px      :     0.904937
      py      :     1.117454
      dz2     :     0.014640  d :     0.156429
      dxz     :     0.030606
      dyz     :     0.017060
      dx2y2   :     0.057243
      dxy     :     0.036880

  3 C s       :     2.854359  s :     2.854359
      pz      :     1.083438  p :     3.146753
      px      :     1.055231
      py      :     1.008084
      dz2     :     0.006628  d :     0.089041
      dxz     :     0.011497
      dyz     :     0.006886
      dx2y2   :     0.027056
      dxy     :     0.036974

  4 C s       :     2.855495  s :     2.855495
      pz      :     1.066026  p :     3.131682
      px      :     1.058363
      py      :     1.007294
      dz2     :     0.006451  d :     0.092561
      dxz     :     0.014551
      dyz     :     0.007147
      dx2y2   :     0.027221
      dxy     :     0.037191

  5 C s       :     2.833801  s :     2.833801
      pz      :     1.104865  p :     3.185355
      px      :     1.011671
      py      :     1.068819
      dz2     :     0.008201  d :     0.112287
      dxz     :     0.011809
      dyz     :     0.012081
      dx2y2   :     0.042970
      dxy     :     0.037225

  6 C s       :     2.859090  s :     2.859090
      pz      :     0.934442  p :     3.025404
      px      :     1.052279
      py      :     1.038683
      dz2     :     0.006216  d :     0.094280
      dxz     :     0.017221
      dyz     :     0.007619
      dx2y2   :     0.030229
      dxy     :     0.032994

  7 C s       :     2.857226  s :     2.857226
      pz      :     0.966316  p :     3.051627
      px      :     1.047785
      py      :     1.037527
      dz2     :     0.006292  d :     0.093066
      dxz     :     0.015929
      dyz     :     0.007639
      dx2y2   :     0.030512
      dxy     :     0.032695

  8 C s       :     2.909935  s :     2.909935
      pz      :     0.944612  p :     3.020368
      px      :     1.153922
      py      :     0.921834
      dz2     :     0.010134  d :     0.114138
      dxz     :     0.042877
      dyz     :     0.000047
      dx2y2   :     0.029948
      dxy     :     0.031132

  9 H s       :     0.911767  s :     0.911767
      pz      :     0.017627  p :     0.070068
      px      :     0.017567
      py      :     0.034874

 10 H s       :     0.914594  s :     0.914594
      pz      :     0.016877  p :     0.068342
      px      :     0.017050
      py      :     0.034416

 11 H s       :     0.896322  s :     0.896322
      pz      :     0.013247  p :     0.066578
      px      :     0.018257
      py      :     0.035075

 12 H s       :     0.897917  s :     0.897917
      pz      :     0.014391  p :     0.067342
      px      :     0.018207
      py      :     0.034744

 13 H s       :     0.795468  s :     0.795468
      pz      :     0.033504  p :     0.135255
      px      :     0.033673
      py      :     0.068077

 14 H s       :     0.860738  s :     0.860738
      pz      :     0.043473  p :     0.162244
      px      :     0.037878
      py      :     0.080893

 15 O s       :     3.438605  s :     3.438605
      pz      :     1.171823  p :     4.242130
      px      :     1.680273
      py      :     1.390034
      dz2     :     0.013277  d :     0.056005
      dxz     :     0.012922
      dyz     :     0.018184
      dx2y2   :     0.004205
      dxy     :     0.007416

 16 H s       :     0.951096  s :     0.951096
      pz      :     0.071749  p :     0.225351
      px      :     0.077602
      py      :     0.075999

 17 H s       :     0.833039  s :     0.833039
      pz      :     0.061331  p :     0.206213
      px      :     0.042534
      py      :     0.102348



                      *****************************
                      * MAYER POPULATION ANALYSIS *
                      *****************************

  NA   - Mulliken gross atomic population
  ZA   - Total nuclear charge
  QA   - Mulliken gross atomic charge
  VA   - Mayer's total valence
  BVA  - Mayer's bonded valence
  FA   - Mayer's free valence

  ATOM       NA         ZA         QA         VA         BVA        FA
  0 N      6.7607     7.0000     0.2393     3.5860     3.5860     0.0000
  1 N      6.9772     7.0000     0.0228     3.1285     3.1285     0.0000
  2 C      6.0265     6.0000    -0.0265     3.9355     3.9355     0.0000
  3 C      6.0025     6.0000    -0.0025     3.8227     3.8227     0.0000
  4 C      6.0012     6.0000    -0.0012     3.8390     3.8390    -0.0000
  5 C      6.1201     6.0000    -0.1201     3.8792     3.8792    -0.0000
  6 C      5.9532     6.0000     0.0468     3.9128     3.9128    -0.0000
  7 C      5.9689     6.0000     0.0311     3.8955     3.8955    -0.0000
  8 C      6.1408     6.0000    -0.1408     4.0789     4.0789     0.0000
  9 H      1.0449     1.0000    -0.0449     0.9997     0.9997     0.0000
 10 H      1.0520     1.0000    -0.0520     0.9911     0.9911     0.0000
 11 H      1.0163     1.0000    -0.0163     0.9850     0.9850     0.0000
 12 H      1.0200     1.0000    -0.0200     0.9849     0.9849     0.0000
 13 H      0.8966     1.0000     0.1034     1.0643     1.0643     0.0000
 14 H      1.0557     1.0000    -0.0557     1.1743     1.1743    -0.0000
 15 O      7.7498     8.0000     0.2502     1.8289     1.8289    -0.0000
 16 H      1.1897     1.0000    -0.1897     1.3677     1.3677    -0.0000
 17 H      1.0237     1.0000    -0.0237     1.3250     1.3250    -0.0000

  Mayer bond orders larger than 0.100000
B(  0-N ,  2-C ) :   1.1561 B(  0-N , 13-H ) :   0.8879 B(  0-N , 14-H ) :   0.7886 
B(  0-N , 15-O ) :   0.4927 B(  0-N , 16-H ) :   0.1430 B(  1-N ,  8-C ) :   2.9785 
B(  2-C ,  3-C ) :   1.2065 B(  2-C ,  4-C ) :   1.2889 B(  2-C , 16-H ) :   0.1032 
B(  3-C ,  6-C ) :   1.4709 B(  3-C ,  9-H ) :   0.9715 B(  4-C ,  7-C ) :   1.4574 
B(  4-C , 10-H ) :   0.9777 B(  5-C ,  6-C ) :   1.3152 B(  5-C ,  7-C ) :   1.2798 
B(  5-C ,  8-C ) :   1.1107 B(  6-C , 11-H ) :   0.9801 B(  7-C , 12-H ) :   0.9786 
B( 14-H , 16-H ) :   0.1649 B( 14-H , 17-H ) :   0.1062 B( 15-O , 16-H ) :   0.6065 
B( 15-O , 17-H ) :   0.7866 B( 16-H , 17-H ) :   0.1791 

-------
TIMINGS
-------

Total SCF time: 0 days 0 hours 0 min 12 sec 

Total time                  ....      12.206 sec
Sum of individual times     ....      12.039 sec  ( 98.6%)

SCF preparation             ....       0.394 sec  (  3.2%)
Fock matrix formation       ....      10.806 sec  ( 88.5%)
  Startup                   ....       0.080 sec  (  0.7% of F)
  Split-RI-J                ....       1.030 sec  (  9.5% of F)
  Chain of spheres X        ....       6.812 sec  ( 63.0% of F)
  XC integration            ....       2.616 sec  ( 24.2% of F)
    XC Preparation          ....       0.000 sec  (  0.0% of XC)
    Basis function eval.    ....       0.803 sec  ( 30.7% of XC)
    Density eval.           ....       0.362 sec  ( 13.8% of XC)
    XC-Functional eval.     ....       0.194 sec  (  7.4% of XC)
    XC-Potential eval.      ....       0.544 sec  ( 20.8% of XC)
Diagonalization             ....       0.000 sec  (  0.0%)
Density matrix formation    ....       0.242 sec  (  2.0%)
Total Energy calculation    ....       0.089 sec  (  0.7%)
Population analysis         ....       0.023 sec  (  0.2%)
Orbital Transformation      ....       0.034 sec  (  0.3%)
Orbital Orthonormalization  ....       0.000 sec  (  0.0%)
DIIS solution               ....       0.303 sec  (  2.5%)
SOSCF solution              ....       0.146 sec  (  1.2%)
Finished LeanSCF after  12.2 sec

Maximum memory used throughout the entire LEANSCF-calculation: 19.1 MB


-------------------------------------------------------------------------------
                          DFT DISPERSION CORRECTION                            
                                                                               
                              DFTD3 V3.1  Rev 1                                
                          USING Becke-Johnson damping                          
-------------------------------------------------------------------------------
The B3LYP functional is recognized
Active option DFTDOPT                   ...         4   

molecular C6(AA) [au] = 3686.446813 


            DFT-D V3
 parameters
 s6 scaling factor         :     1.0000 
 a1 scaling factor         :     0.3981 
 s8 scaling factor         :     1.9889 
 a2 scaling factor         :     4.4211 
 ad hoc parameters k1-k3   :    16.0000     1.3333    -4.0000 

 Edisp/kcal,au: -20.509895622826  -0.032684595664 
 E6   /kcal   :  -9.647821002 
 E8   /kcal   : -10.862074621 
 % E8         :  52.960165282 

-------------------------   ----------------
Dispersion correction           -0.032684596
-------------------------   ----------------


-------------------------   --------------------
FINAL SINGLE POINT ENERGY      -455.253816499532
-------------------------   --------------------

--------------------------------------------------------------------------
By default, for Open MPI 4.0 and later, infiniband ports on a device
are not used by default.  The intent is to use UCX for these devices.
You can override this policy by setting the btl_openib_allow_ib MCA parameter
to true.

  Local host:              psid01
  Local adapter:           mlx5_0
  Local port:              1

--------------------------------------------------------------------------
--------------------------------------------------------------------------
WARNING: There was an error initializing an OpenFabrics device.

  Local host:   psid01
  Local device: mlx5_0
--------------------------------------------------------------------------


           ************************************************************
           *        Program running with 10 parallel MPI-processes    *
           *              working on a common directory               *
           ************************************************************
------------------------------------------------------------------------------
                         ORCA SCF GRADIENT CALCULATION
------------------------------------------------------------------------------

Nuc. rep. gradient        (SHARK) ... done (  0.0 sec)
HCore & Overlap gradient  (SHARK) ... done (  0.0 sec)
Split-RIJ-J gradient      (SHARK) ... done (  0.2 sec)
COSX-gradient                     ... done (  2.9 sec)
XC gradient                       ... done (  0.5 sec)
Dispersion correction             ... done (  0.0 sec)

-------------------
DISPERSION GRADIENT
-------------------

   1   N   :    0.000594620    0.000008530   -0.000033113
   2   N   :   -0.000707677    0.000000129   -0.000000758
   3   C   :    0.000370627    0.000021576   -0.000076203
   4   C   :   -0.000009280   -0.000604256   -0.000143537
   5   C   :    0.000006992    0.000646623   -0.000130111
   6   C   :   -0.000465938    0.000004592   -0.000028982
   7   C   :   -0.000273805   -0.000565500   -0.000067005
   8   C   :   -0.000245270    0.000576171   -0.000057735
   9   C   :   -0.000759708    0.000000559   -0.000003758
  10   H   :    0.000039210   -0.000406280   -0.000064981
  11   H   :    0.000053470    0.000416610   -0.000055280
  12   H   :   -0.000083319   -0.000358501   -0.000006260
  13   H   :   -0.000078068    0.000357639   -0.000004736
  14   H   :    0.000290305    0.000108753   -0.000040834
  15   H   :    0.000289105   -0.000087720   -0.000027138
  16   O   :    0.000460730   -0.000084914    0.000248979
  17   H   :    0.000254060   -0.000086072    0.000227087
  18   H   :    0.000263947    0.000052061    0.000264366

Difference to translation invariance:
           :   -0.0000000000    0.0000000000    0.0000000000

Difference to rotation invariance:
           :   -0.0000000000    0.0000000000    0.0000000000

Norm of the Dispersion gradient    ...    0.0021833056
RMS gradient                       ...    0.0002971103
MAX gradient                       ...    0.0007597084

------------------
CARTESIAN GRADIENT
------------------

   1   N   :    0.033960564   -0.057898900    0.206098253
   2   N   :    0.006807374   -0.000094517    0.000347031
   3   C   :    0.079819416   -0.041671188    0.084374020
   4   C   :    0.011555204    0.015376505    0.008538775
   5   C   :    0.010904114   -0.007361062    0.010227195
   6   C   :    0.015843938    0.004523709   -0.001444799
   7   C   :   -0.010033020    0.000537884    0.005218966
   8   C   :   -0.012704058   -0.008212183    0.003684158
   9   C   :   -0.011421192    0.000351862   -0.001700687
  10   H   :    0.000869376    0.000009511   -0.003420684
  11   H   :    0.000201257   -0.001327155   -0.001868098
  12   H   :   -0.000735630    0.000215714   -0.000063169
  13   H   :   -0.000756746   -0.000122623   -0.000686372
  14   H   :   -0.011816389   -0.020082270    0.002249094
  15   H   :   -0.059275217    0.068938456    0.081851753
  16   O   :    0.017185503    0.012478398   -0.303179741
  17   H   :   -0.081576299    0.072158236   -0.044503633
  18   H   :    0.011171806   -0.037820376   -0.045722063

Difference to translation invariance:
           :   -0.0000000002   -0.0000000000   -0.0000000000

Difference to rotation invariance:
           :    0.0001384125   -0.0002209081    0.0000331337

Norm of the Cartesian gradient     ...    0.4349060664
RMS gradient                       ...    0.0591832194
MAX gradient                       ...    0.3031797415

-------
TIMINGS
-------

Total SCF gradient time     ....        3.753 sec

Densities                   ....       0.000 sec  (  0.0%)
One electron gradient       ....       0.025 sec  (  0.7%)
RI-J Coulomb gradient       ....       0.203 sec  (  5.4%)
COSX gradient               ....       2.944 sec  ( 78.5%)
XC gradient                 ....       0.537 sec  ( 14.3%)

Maximum memory used throughout the entire SCFGRAD-calculation: 30.2 MB
[psid01:189167] 9 more processes have sent help message help-mpi-btl-openib.txt / ib port not selected
[psid01:189167] Set MCA parameter "orte_base_help_aggregate" to 0 to see all help / error messages
[psid01:189167] 9 more processes have sent help message help-mpi-btl-openib.txt / error in device init
------------------------------------------------------------------------------
                         ORCA GEOMETRY RELAXATION STEP
------------------------------------------------------------------------------

Reading the OPT-File                    .... done
Getting information on internals        .... done
Copying old internal coords+grads       .... done
Making the new internal coordinates     .... (2022 redundants) done
Validating the new internal coordinates .... (2022 redundants) done
Calculating the B-matrix                .... done
Calculating the G,G- and P matrices     .... done
Transforming gradient to internals      .... done
Projecting the internal gradient        .... done
Number of atoms                         ....  18
Number of internal coordinates          ....  98
Current Energy                          ....  -455.253816500 Eh
Current gradient norm                   ....     0.434906066 Eh/bohr
Maximum allowed component of the step   ....  0.300
Current trust radius                    ....  0.300
Evaluating the initial hessian          ....  (Almloef) done
Projecting the Hessian                  .... done
Forming the augmented Hessian           .... done
Diagonalizing the augmented Hessian     .... done
Last element of RFO vector              ....  0.848005832
Lowest eigenvalues of augmented Hessian:
 -0.207528335  0.018508809  0.023372189  0.023964385  0.024995043
Length of the computed step             ....  0.624980249
Warning: the length of the step is outside the trust region - taking restricted step instead
The input lambda is                     ....     0.016766
   iter:   5  x=    0.009300  g= 4272.554316 f(x)=    13.431705
   iter:  10  x=   -0.276176  g=    3.308913 f(x)=     0.482815
   iter:  15  x=   -0.768568  g=    0.159261 f(x)=     0.000061
The output lambda is                    ....    -0.768568 (18 iterations)
The final length of the internal step   ....  0.300000000
Converting the step to Cartesian space:
 Initial RMS(Int)=    0.0303045763
Transforming coordinates:
 Iter   0:  RMS(Cart)=    0.0523377117 RMS(Int)=    1.7938339369
 Iter   5:  RMS(Cart)=    0.0000002311 RMS(Int)=    0.0000001869
done
Storing new coordinates                 .... done

                                .--------------------.
          ----------------------|Geometry convergence|-------------------------
          Item                value                   Tolerance       Converged
          ---------------------------------------------------------------------
          RMS gradient        0.0354493338            0.0001000000      NO
          MAX gradient        0.2307034745            0.0003000000      NO
          RMS step            0.0303045763            0.0020000000      NO
          MAX step            0.1834475723            0.0040000000      NO
[...]
   9   C   :   -0.000172019   -0.000189758   -0.000258734
  10   H   :    0.000129485    0.000059541    0.000000967
  11   H   :   -0.000135755    0.000014493   -0.000112428
  12   H   :   -0.000090109   -0.000001585   -0.000023720
  13   H   :    0.000159591    0.000070715   -0.000006227
  14   H   :    0.000614283   -0.000294598   -0.000301343
  15   H   :    0.000148231    0.000156211   -0.000164892
  16   O   :   -0.001235556    0.000187933   -0.000545979
  17   H   :    0.000421558    0.000526371    0.000951093
  18   H   :    0.000607707   -0.000883635   -0.000241046

Difference to translation invariance:
           :   -0.0000000001    0.0000000001   -0.0000000000

Difference to rotation invariance:
           :   -0.0000009738   -0.0000796652   -0.0000395287

Norm of the Cartesian gradient     ...    0.0045327774
RMS gradient                       ...    0.0006168329
MAX gradient                       ...    0.0030528155

-------
TIMINGS
-------

Total SCF gradient time     ....        2.994 sec

Densities                   ....       0.000 sec  (  0.0%)
One electron gradient       ....       0.023 sec  (  0.8%)
RI-J Coulomb gradient       ....       0.189 sec  (  6.3%)
COSX gradient               ....       2.295 sec  ( 76.6%)
XC gradient                 ....       0.442 sec  ( 14.8%)

Maximum memory used throughout the entire SCFGRAD-calculation: 30.0 MB
[psid01:208877] 9 more processes have sent help message help-mpi-btl-openib.txt / ib port not selected
[psid01:208877] Set MCA parameter "orte_base_help_aggregate" to 0 to see all help / error messages
[psid01:208877] 9 more processes have sent help message help-mpi-btl-openib.txt / error in device init
------------------------------------------------------------------------------
                         ORCA GEOMETRY RELAXATION STEP
------------------------------------------------------------------------------

Reading the OPT-File                    .... done
Getting information on internals        .... done
Copying old internal coords+grads       .... done
Making the new internal coordinates     .... (2022 redundants) done
Validating the new internal coordinates .... (2022 redundants) done
Calculating the B-matrix                .... done
Calculating the G,G- and P matrices     .... done
Transforming gradient to internals      .... done
Projecting the internal gradient        .... done
Number of atoms                         ....  18
Number of internal coordinates          ....  98
Current Energy                          ....  -455.715039892 Eh
Current gradient norm                   ....     0.004532777 Eh/bohr
Maximum allowed component of the step   ....  0.300
Current trust radius                    ....  0.467
Updating the Hessian (BFGS)             .... done
Forming the augmented Hessian           .... done
Diagonalizing the augmented Hessian     .... done
Last element of RFO vector              ....  0.978486682
Lowest eigenvalues of augmented Hessian:
 -0.000059994  0.000417679  0.001759198  0.002664908  0.004965151
Length of the computed step             ....  0.210845991
The final length of the internal step   ....  0.210845991
Converting the step to Cartesian space:
 Initial RMS(Int)=    0.0212986615
Transforming coordinates:
 Iter   0:  RMS(Cart)=    0.0201128992 RMS(Int)=    0.6349741168
 Iter   5:  RMS(Cart)=    0.0000032904 RMS(Int)=    0.0000027590
 Iter  10:  RMS(Cart)=    0.0000000985 RMS(Int)=    0.0000000826
done
Storing new coordinates                 .... done
The predicted energy change is          ....    -0.000031330
Previously predicted energy change      ....    -0.000031275
Actually observed energy change         ....    -0.000043013
Ratio of predicted to observed change   ....     1.375297240
New trust radius                        ....     0.466666667

                                .--------------------.
          ----------------------|Geometry convergence|-------------------------
          Item                value                   Tolerance       Converged
          ---------------------------------------------------------------------
          Energy change      -0.0000430128            0.0000050000      NO
          RMS gradient        0.0003150619            0.0001000000      NO
          MAX gradient        0.0022237857            0.0003000000      NO
          RMS step            0.0212986615            0.0020000000      NO
          MAX step            0.1189531413            0.0040000000      NO
          ........................................................
          Max(Bonds)      0.0128      Max(Angles)    3.92
          Max(Dihed)        6.82      Max(Improp)    0.00
          ---------------------------------------------------------------------

The optimization has not yet converged - more geometry cycles are needed


    ---------------------------------------------------------------------------
                         Redundant Internal Coordinates
                            (Angstroem and degrees)

        Definition                    Value    dE/dq     Step     New-Value
    ----------------------------------------------------------------------------
     1. B(C   2,N   0)                1.3649  0.002224  0.0004    1.3652   
     2. B(C   3,C   2)                1.4174 -0.000255  0.0001    1.4175   
     3. B(C   4,C   2)                1.4154  0.000124  0.0000    1.4154   
     4. B(C   6,C   5)                1.4101 -0.000272 -0.0004    1.4097   
     5. B(C   6,C   3)                1.3857  0.000281  0.0001    1.3859   
     6. B(C   7,C   5)                1.4096  0.000237 -0.0001    1.4094   
     7. B(C   7,C   4)                1.3868 -0.000065  0.0000    1.3868   
     8. B(C   8,C   5)                1.4301  0.000125  0.0002    1.4303   
     9. B(C   8,N   1)                1.1630 -0.000076 -0.0001    1.1629   
    10. B(H   9,C   3)                1.0915  0.000032 -0.0001    1.0915   
    11. B(H  10,C   4)                1.0933  0.000000 -0.0000    1.0933   
    12. B(H  11,C   6)                1.0922  0.000032  0.0000    1.0922   
    13. B(H  12,C   7)                1.0919 -0.000036 -0.0001    1.0919   
    14. B(H  13,N   0)                1.0097  0.000155  0.0002    1.0098   
    15. B(H  14,N   0)                1.0171 -0.000116 -0.0001    1.0169   
    16. B(O  15,C   2)                3.6209  0.000411  0.0128    3.6338   
    17. B(O  15,N   0)                2.9329 -0.000257  0.0050    2.9379   
    18. B(H  16,O  15)                0.9666 -0.000510 -0.0002    0.9664   
    19. B(H  17,O  15)                0.9667 -0.000307 -0.0001    0.9666   
    20. A(C   2,N   0,H  14)          119.72 -0.000133    0.03    119.75   
    21. A(H  13,N   0,H  14)          119.00 -0.000336   -0.11    118.89   
    22. A(C   2,N   0,H  13)          120.24  0.000479    0.12    120.37   
    23. A(H  14,N   0,O  15)           10.42  0.000265   -0.17     10.25   
    24. A(H  13,N   0,O  15)          129.23 -0.000065   -0.67    128.56   
    25. A(C   2,N   0,O  15)          109.30 -0.000397    0.42    109.72   
    26. A(C   4,C   2,O  15)          169.84  0.000003   -0.05    169.79   
    27. A(C   3,C   2,C   4)          118.12  0.000345    0.06    118.18   
    28. A(N   0,C   2,O  15)           49.86  0.000039   -0.31     49.55   
    29. A(N   0,C   2,C   4)          121.66 -0.000038    0.22    121.87   
    30. A(N   0,C   2,C   3)          120.22 -0.000306   -0.28    119.94   
    31. A(C   3,C   2,O  15)           70.70 -0.000347    0.05     70.74   
    32. A(C   6,C   3,H   9)          120.92  0.000313    0.15    121.07   
    33. A(C   2,C   3,H   9)          118.38  0.000029   -0.08    118.29   
    34. A(C   2,C   3,C   6)          120.70 -0.000342   -0.07    120.64   
    35. A(C   2,C   4,H  10)          119.39  0.000193   -0.01    119.38   
    36. A(C   2,C   4,C   7)          120.90 -0.000054   -0.02    120.88   
    37. A(C   7,C   4,H  10)          119.71 -0.000139    0.03    119.74   
    38. A(C   6,C   5,C   7)          118.49  0.000189    0.05    118.55   
    39. A(C   7,C   5,C   8)          120.86  0.000086    0.07    120.93   
    40. A(C   6,C   5,C   8)          120.64 -0.000275   -0.12    120.52   
    41. A(C   3,C   6,C   5)          120.98  0.000100    0.01    120.99   
    42. A(C   5,C   6,H  11)          119.17 -0.000139   -0.13    119.04   
    43. A(C   3,C   6,H  11)          119.85  0.000039    0.11    119.96   
    44. A(C   5,C   7,H  12)          119.44  0.000293    0.04    119.49   
    45. A(C   4,C   7,H  12)          119.76 -0.000056   -0.00    119.75   
    46. A(C   4,C   7,C   5)          120.80 -0.000237   -0.04    120.76   
    47. L(N   1,C   8,C   5,C   7, 2) 179.51 -0.000090    0.11    179.62   
    48. L(N   1,C   8,C   5,C   7, 1) 180.22  0.000143    0.23    180.44   
    49. A(N   0,O  15,H  16)          128.90  0.000316   -2.75    126.16   
    50. A(N   0,O  15,C   2)           20.84  0.000358   -0.12     20.72   
    51. A(H  16,O  15,H  17)          104.39 -0.000808    0.09    104.48   
    52. A(C   2,O  15,H  17)          112.14  0.000415    0.64    112.78   
    53. A(N   0,O  15,H  17)          124.16  0.000653    1.29    125.45   
    54. A(C   2,O  15,H  16)          129.11  0.000372   -3.92    125.19   
    55. D(C   3,C   2,N   0,H  14)     -7.71 -0.000004    0.07     -7.64   
    56. D(C   3,C   2,N   0,H  13)   -175.93 -0.000022    0.04   -175.88   
    57. D(C   4,C   2,N   0,O  15)    173.09  0.000010    0.43    173.52   
    58. D(C   4,C   2,N   0,H  13)      4.63 -0.000052   -0.02      4.60   
    59. D(C   4,C   2,N   0,H  14)    172.84 -0.000034    0.01    172.85   
    60. D(C   3,C   2,N   0,O  15)     -7.46  0.000039    0.50     -6.96   
    61. D(C   6,C   3,C   2,N   0)   -179.61 -0.000053   -0.11   -179.72   
    62. D(C   6,C   3,C   2,O  15)    174.35 -0.000038    0.32    174.66   
    63. D(H   9,C   3,C   2,C   4)    179.85  0.000008    0.06    179.91   
    64. D(H   9,C   3,C   2,N   0)      0.38 -0.000018   -0.01      0.38   
    65. D(C   6,C   3,C   2,C   4)     -0.14 -0.000027   -0.04     -0.19   
    66. D(C   7,C   4,C   2,O  15)   -149.02  0.000027   -2.75   -151.77   
    67. D(C   7,C   4,C   2,C   3)      0.07  0.000020    0.06      0.13   
    68. D(C   7,C   4,C   2,N   0)    179.53  0.000045    0.12    179.65   
    69. D(H  10,C   4,C   2,N   0)     -0.43  0.000060    0.12     -0.31   
    70. D(H  10,C   4,C   2,C   3)   -179.89  0.000035    0.05   -179.84   
    71. D(H  11,C   6,C   5,C   8)      0.14  0.000003   -0.02      0.12   
    72. D(C   3,C   6,C   5,C   8)   -179.93 -0.000001   -0.01   -179.94   
    73. D(H  11,C   6,C   3,H   9)      0.02 -0.000024   -0.09     -0.06   
    74. D(H  11,C   6,C   3,C   2)   -179.98  0.000012    0.02   -179.96   
    75. D(C   5,C   6,C   3,H   9)   -179.90 -0.000021   -0.09   -180.00   
    76. D(H  11,C   6,C   5,C   7)   -179.89  0.000007   -0.00   -179.90   
    77. D(C   5,C   6,C   3,C   2)      0.09  0.000015    0.02      0.11   
    78. D(C   3,C   6,C   5,C   7)      0.04  0.000004    0.00      0.04   
    79. D(C   4,C   7,C   5,C   8)    179.85 -0.000007    0.02    179.88   
    80. D(C   4,C   7,C   5,C   6)     -0.11 -0.000011    0.01     -0.10   
    81. D(H  12,C   7,C   4,H  10)     -0.11 -0.000024   -0.03     -0.14   
    82. D(H  12,C   7,C   4,C   2)    179.93 -0.000009   -0.03    179.90   
    83. D(C   5,C   7,C   4,H  10)   -179.98 -0.000016   -0.04   -180.02   
    84. D(H  12,C   7,C   5,C   6)   -179.99 -0.000003    0.01   -179.98   
    85. D(C   5,C   7,C   4,C   2)      0.06 -0.000001   -0.04      0.02   
    86. D(H  12,C   7,C   5,C   8)     -0.02  0.000001    0.02     -0.00   
    87. D(H  17,O  15,C   2,N   0)    129.41  0.000265    2.51    131.92   
    88. D(H  16,O  15,C   2,C   3)     75.16 -0.000115   -1.79     73.37   
    89. D(H  16,O  15,C   2,N   0)    -98.01 -0.000116   -2.29   -100.30   
    90. D(N   0,O  15,C   2,C   4)    -35.52  0.000028    3.12    -32.40   
    91. D(N   0,O  15,C   2,C   3)    173.17  0.000000    0.50    173.67   
    92. D(H  17,O  15,N   0,C   2)    -59.86 -0.000097    2.44    -57.42   
    93. D(H  16,O  15,N   0,H  14)    -82.06  0.000218   -6.82    -88.87   
    94. D(H  16,O  15,N   0,H  13)    -93.77  0.000545   -2.79    -96.56   
    95. D(H  16,O  15,N   0,C   2)     99.12  0.000399   -3.51     95.62   
    96. D(H  16,O  15,C   2,C   4)   -133.53 -0.000087    0.83   -132.70   
    97. D(C   2,O  15,N   0,H  14)    178.82 -0.000181   -3.31    175.51   
    98. D(C   2,O  15,N   0,H  13)    167.11  0.000145    0.71    167.82   
    ----------------------------------------------------------------------------

Geometry step timings:
Preparation and reading OPT file:      0.002 s (17.858 %)
Internal coordinates            :      0.000 s ( 0.473 %)
B/P matrices and projection     :      0.001 s ( 9.827 %)
Hessian update/contruction      :      0.003 s (37.082 %)
Making the step                 :      0.001 s ( 8.666 %)
Converting the step to Cartesian:      0.000 s ( 1.408 %)
Storing new data                :      0.001 s ( 7.118 %)
Checking convergence            :      0.000 s ( 0.269 %)
Final printing                  :      0.002 s (17.278 %)
Total time                      :      0.009 s
--------------------------------------------------------------------------
By default, for Open MPI 4.0 and later, infiniband ports on a device
are not used by default.  The intent is to use UCX for these devices.
You can override this policy by setting the btl_openib_allow_ib MCA parameter
to true.

  Local host:              psid01
  Local adapter:           mlx5_0
  Local port:              1

--------------------------------------------------------------------------
--------------------------------------------------------------------------
WARNING: There was an error initializing an OpenFabrics device.

  Local host:   psid01
  Local device: mlx5_0
--------------------------------------------------------------------------
[psid01:208914] 9 more processes have sent help message help-mpi-btl-openib.txt / ib port not selected
[psid01:208914] Set MCA parameter "orte_base_help_aggregate" to 0 to see all help / error messages
[psid01:208914] 9 more processes have sent help message help-mpi-btl-openib.txt / error in device init

Time for energy+gradient        :     10.668 s
Time for complete geometry iter :     11.279 s




    ----------------------------------------------------------------------------
                                  WARNING !!!
       The optimization did not converge but reached the maximum number of
       optimization cycles.
       Please check your results very carefully.
    ----------------------------------------------------------------------------



--------------------------------
SUGGESTED CITATIONS FOR THIS RUN
--------------------------------

Below you find a list of papers that are relevant to this ORCA run
We neither can nor want to force you to cite these papers, but we appreciate if you do
You receive ORCA, which is the product of decades of hard work by many enthusiastic individuals, for free
The only thing we kindly ask in return is that you cite our papers,
We deeply appreciate it, if you show your appreciation for ORCA by not just citing the generic ORCA reference.

Please note that relegating all ORCA citations to the supporting information does *not* help us.
SI sections are not indexed - citations you put there will not count into any citation statistics
But we need these citations in order to attract the funding resources that allow us to do what we are doing

Therefore, if you are a happy ORCA user, please consider citing a few of the papers listed below in the main body of your paper

In addition to the list printed below, the program has created the file 4nitroaniline_water_2.bibtex that contains the list in bibtex format
You can import this file easily into all common literature databanks and citation aid programs


List of essential papers. We consider these as the minimum necessary citations

  1. Neese,F.
     Software update: the ORCA program system, version 5.0
     WIRES Comput. Molec. Sci., 2022 12(1)e1606
     doi.org/10.1002/wcms.1606

List of papers to cite with high priority. The work reported in these papers was absolutely
necessary for this run to complete.
Our perspective: the developers of density functionals and basis sets usually get cited in chemistry papers
Good! But without the algorithms to do something with them, the functionals or basis sets would not do anything.
Hence, in our opinion, the algorithm design and method developments papers are equally worthy of getting cited

  1. Neese,F.
     An improvement of the resolution of the identity approximation for the formation of the Coulomb matrix
     J. Comp. Chem., 2003 24(14)1740-1747
     doi.org/10.1002/jcc.10318
  2. Neese,F.; Wennmohs,F.; Hansen,A.; Becker,U.
     Efficient, approximate and parallel Hartree-Fock and hybrid DFT calculations. A 'chain-of-spheres' algorithm for the Hartree-Fock exchange
     Chem. Phys., 2009 356(1-3)98-109
     doi.org/10.1016/j.chemphys.2008.10.036
  3. Helmich-Paris,B.; de Souza,B.; Neese,F.; Izsák,R.
     An improved chain of spheres for exchange algorithm
     J. Chem. Phys., 2021 155 104109
     doi.org/doi: 10.1063/5.0058766.
  4. Neese,F.
     The SHARK Integral Generation and Digestion System
     J. Comp. Chem., 2022  1-16
     doi.org/10.1002/jcc.26942
  5. Grimme,S.; Antony,J.; Ehrlich,S.; Krieg,H.
     A consistent and accurate ab initio parametrization of density functional dispersion correction (DFT-D) for the 94 elements H-Pu
     J. Chem. Phys., 2010 132 154104
     doi.org/10.1063/1.3382344
  6. Grimme,S.; Ehrlich,S.; Goerigk,L.
     Effect of the damping function in dispersion corrected density functional theory
     J. Comput. Chem., 2011 32(7)1456-1465
     doi.org/10.1002/jcc.21759

List of suggested additional citations. These are papers that are important in the 'surrounding' of 
of this run, or papers that preceded the highly important papers. If you like your results we are grateful for a citation.

  1. Izsak,R.; Neese,F.
     An overlap fitted chain of spheres exchange method
     J. Chem. Phys., 2011 135 144105
     doi.org/10.1063/1.3646921
  2. Izsak,R.; Hansen,A.; Neese,F.
     The resolution of identity and chain of spheres approximations for the LPNO-CCSD singles Fock term
     Molec. Phys., 2012 110 2413-2417
     doi.org/10.1080/00268976.2012.687466
  3. Neese,F.
     The ORCA program system
     WIRES Comput. Molec. Sci., 2012 2(1)73-78
     doi.org/10.1002/wcms.81
  4. Izsak,R.; Neese,F.; Klopper,W.
     Robust fitting techniques in the chain of spheres approximation to the Fock exchange: The role of the complementary space
     J. Chem. Phys., 2013 139 
     doi.org/10.1063/1.4819264
  5. Neese,F.
     Software update: the ORCA program system, version 4.0
     WIRES Comput. Molec. Sci., 2018 8(1)1-6
     doi.org/10.1002/wcms.1327
  6. Neese,F.; Wennmohs,F.; Becker,U.; Riplinger,C.
     The ORCA quantum chemistry program package
     J. Chem. Phys., 2020 152 Art. No. L224108
     doi.org/10.1063/5.0004608

List of optional additional citations

  1. Neese,F.
     Approximate second-order SCF convergence for spin unrestricted wavefunctions
     Chem. Phys. Lett., 2000 325(1-3)93-98
     doi.org/10.1016/s0009-2614(00)00662-x

Timings for individual modules:

Sum of individual times          ...      623.994 sec (=  10.400 min)
Startup calculation              ...       73.982 sec (=   1.233 min)  11.9 %
SCF iterations                   ...      350.074 sec (=   5.835 min)  56.1 %
SCF Gradient evaluation          ...      199.390 sec (=   3.323 min)  32.0 %
Geometry relaxation              ...        0.548 sec (=   0.009 min)   0.1 %
                             ****ORCA TERMINATED NORMALLY****
TOTAL RUN TIME: 0 days 0 hours 11 minutes 3 seconds 103 msec
