
                                 *****************
                                 * O   R   C   A *
                                 *****************

                                            #,                                       
                                            ###                                      
                                            ####                                     
                                            #####                                    
                                            ######                                   
                                           ########,                                 
                                     ,,################,,,,,                         
                               ,,#################################,,                 
                          ,,##########################################,,             
                       ,#########################################, ''#####,          
                    ,#############################################,,   '####,        
                  ,##################################################,,,,####,       
                ,###########''''           ''''###############################       
              ,#####''   ,,,,##########,,,,          '''####'''          '####       
            ,##' ,,,,###########################,,,                        '##       
           ' ,,###''''                  '''############,,,                           
         ,,##''                                '''############,,,,        ,,,,,,###''
      ,#''                                            '''#######################'''  
     '                                                          ''''####''''         
             ,#######,   #######,   ,#######,      ##                                
            ,#'     '#,  ##    ##  ,#'     '#,    #''#        ,####,   ,####,        
            ##       ##  ##   ,#'  ##            #'  '#       #'       #'  '#        
            ##       ##  #######   ##           ,######,      #####,   #    #        
            '#,     ,#'  ##    ##  '#,     ,#' ,#      #,     #,   #   #,  ,#        
             '#######'   ##     ##  '#######'  #'      '#     '####' # '####'        



                #########################################################
                #                        -***-                          #
                #          Department of theory and spectroscopy        #
                #                                                       #
                #                      Frank Neese                      #
                #                                                       #
                #     Directorship, Architecture, Infrastructure        #
                #                    SHARK, DRIVERS                     #
                #        Core code/Algorithms in most modules           #
                #                                                       #
                #        Max Planck Institute fuer Kohlenforschung      #
                #                Kaiser Wilhelm Platz 1                 #
                #                 D-45470 Muelheim/Ruhr                 #
                #                      Germany                          #
                #                                                       #
                #                  All rights reserved                  #
                #                        -***-                          #
                #########################################################


                         Program Version 6.0.1  -  RELEASE   -


 With contributions from (in alphabetic order):
[Max-Planck-Institut fuer Kohlenforschung]                               
  Daniel Aravena         : Magnetic Suceptibility                        
  Michael Atanasov       : Ab Initio Ligand Field Theory (pilot matlab implementation)
  Alexander A. Auer      : GIAO ZORA, VPT2 properties, NMR spectrum      
  Ute Becker             : All parallelization in ORCA, NUMFREQ, NUMCALC 
  Giovanni Bistoni       : ED, misc. LED, open-shell LED, HFLD           
  Martin Brehm           : Molecular dynamics                            
  Dmytro Bykov           : pre 5.0 version of the SCF Hessian            
  Marcos Casanova-Páez   : Triplet and SCS-CIS(D). UHF-(DLPNO)-IP/EA/STEOM-CCSD. UHF-CVS-IP/STEOM-CCSD   
  Vijay G. Chilkuri      : MRCI spin determinant printing, contributions to CSF-ICE 
  Pauline Colinet        : FMM embedding                                 
  Dipayan Datta          : RHF DLPNO-CCSD density                        
  Achintya Kumar Dutta   : EOM-CC, STEOM-CC                              
  Nicolas Foglia         : Exact transition moments, OPA infrastructure, MCD improvements    
  Dmitry Ganyushin       : Spin-Orbit,Spin-Spin,Magnetic field MRCI      
  Miquel Garcia-Rates    : C-PCM and meta-GGA Hessian, CCSD/C-PCM, Gaussian charge scheme 
  Tiago L. C. Gouveia    : GS-ROHF, GS-ROCIS                             
  Yang Guo               : DLPNO-NEVPT2, F12-NEVPT2, CIM, IAO-localization        
  Andreas Hansen         : Spin unrestricted coupled pair/coupled cluster methods 
  Ingolf Harden          : AUTO-CI MPn and infrastructure                
  Benjamin Helmich-Paris : MC-RPA, TRAH-(SCF,CASSCF), AVAS, COSX integrals, SCF dyn. polar. 
  Lee Huntington         : MR-EOM, pCC                                   
  Robert Izsak           : Overlap fitted RIJCOSX, COSX-SCS-MP3, EOM     
  Riya Kayal             : Wick's Theorem for AUTO-CI, AUTO-CI UHF-CCSDT 
  Emily Kempfer          : AUTO-CI, RHF CISDT and CCSDT                  
  Christian Kollmar      : KDIIS, OOCD, Brueckner-CCSD(T), CCSD density, CASPT2, CASPT2-K, improved NEVPT2 
  Axel Koslowski         : Symmetry handling                             
  Simone Kossmann        : meta-GGA functionals, TD-DFT gradient, OOMP2, (MP2 Hessian; deprecated post 5.0) 
  Lucas Lang             : DCDCAS                                        
  Marvin Lechner         : AUTO-CI (C++ implementation), FIC-MRCC        
  Spencer Leger          : CASSCF response                               
  Dagmar Lenk            : GEPOL surface, SMD, ORCA-2-JSON               
  Dimitrios Liakos       : Extrapolation schemes; Compound Job, initial MDCI parallelization 
  Dimitrios Manganas     : Further ROCIS development; embedding schemes. LFT, Crystal Embedding 
  Dimitrios Pantazis     : SARC Basis sets                               
  Anastasios Papadopoulos: AUTO-CI, single reference methods and gradients 
  Taras Petrenko         : pre 6.0 DFT Hessian and TD-DFT gradient, (ASA, deprecated), ECA, 1-Electron XAS/XES, NRVS 
  Peter Pinski           : DLPNO-MP2, DLPNO-MP2 Gradient                 
  Christoph Reimann      : Effective Core Potentials                     
  Marius Retegan         : Local ZFS, SOC                                
  Christoph Riplinger    : Optimizer, TS searches, QM/MM, DLPNO-CCSD(T), (RO)-DLPNO pert. Triples 
  Michael Roemelt        : Original ROCIS implementation                 
  Masaaki Saitow         : Open-shell DLPNO-CCSD energy and density      
  Barbara Sandhoefer     : DKH picture change effects                    
  Kantharuban Sivalingam : CASSCF convergence/infrastructure, NEVPT2 and variants, FIC-MRCI 
  Bernardo de Souza      : ESD, SOC TD-DFT                               
  Georgi L. Stoychev     : AutoAux, RI-MP2 NMR, DLPNO-MP2 response, X2C  
  Van Anh Tran           : RI-MP2 g-tensors                              
  Willem Van den Heuvel  : Paramagnetic NMR                              
  Zikuan Wang            : NOTCH, Electric field optimization            
  Frank Wennmohs         : Technical directorship and infrastructure     
  Hang Xu                : AUTO-CI-Response properties                   
                                                                         
[FACCTs GmbH]                                                            
  Markus Bursch, Miquel Garcia-Rates, Christoph Riplinger, Bernardo de Souza, Georgi L. Stoychev 
                                                                 
  APM, Basis sets (HGBS, AHGBS, def-TZVP (Ac-Lr), def2-XVPD (La-Lu)), CI-OPT, improved COSX, DLPNO-Multilevel,           
  DOCKER, DRACO, updates on ESD, GOAT, IRC, LR-CPCM, MBIS, meta-GGA TD-DFT gradient, ML-optimized integration grids, 
  MM, NACMEs, nearIR, NEB, NEB-TS, NL-DFT gradient (VV10), 2- and 3-layer-ONIOM, interface openCOSMO-RS, QMMM,   
  Crystal-QMMM, SF, symmetry and pop. for TD-DFT, r2SCAN hybrids, SOLVATOR                                   
                                                                         
[Other institutions]                                                     
  V. Asgeirsson          : NEB                                           
  Christoph Bannwarth    : sTDA-DFT, sTD-DFT, PBEh-3c, B97-3c, D3        
  Sebastian Ehlert       : rSCAN, r2SCAN, r2SCAN-3c, D4, dhf basis sets  
  Marvin Friede          : D4 for Fr, Ra, Ac-Lr                          
  Lars Goerigk           : TD-DFT with DH, B97 family of functionals     
  Stefan Grimme          : VdW corrections, initial TS optimization, DFT functionals, gCP, sTDA/sTD-DF 
  Waldemar Hujo          : DFT-NL                                        
  H. Jonsson             : NEB                                           
  Holger Kruse           : gCP                                           
  Marcel Mueller         : wB97X-3c, vDZP basis set                      
  Hagen Neugebauer       : wr2SCAN                                       
  Tobias Risthaus        : range-separated hybrid DFT                    
  Lukas Wittmann         : regularized MP2, r2SCAN double-hybrids, wr2SCAN        
                                                                         
We gratefully acknowledge several colleagues who have allowed us to      
interface, adapt or use parts of their codes:                            
  Ed Valeev, F. Pavosevic, A. Kumar             : LibInt (2-el integral package), F12 methods 
  Garnet Chan, S. Sharma, J. Yang, R. Olivares  : DMRG                   
  Ulf Ekstrom                                   : XCFun DFT Library      
  Mihaly Kallay                                 : mrcc  (arbitrary order and MRCC methods)
  Frank Weinhold                                : gennbo (NPA and NBO analysis)           
  Simon Mueller                                 : openCOSMO-RS                            
  Christopher J. Cramer and Donald G. Truhlar   : smd solvation model                     
  S Lehtola, MJT Oliveira, MAL Marques          : LibXC Library                           
  Liviu Ungur et al                             : ANISO software                          


 Your calculation uses the libint2 library for the computation of 2-el integrals
 For citations please refer to: http://libint.valeyev.net

 Your ORCA version has been built with support for libXC version: 6.2.2
 For citations please refer to: https://libxc.gitlab.io

 This ORCA versions uses:
   CBLAS   interface :  Fast vector & matrix operations
   LAPACKE interface :  Fast linear algebra routines
   SCALAPACK package :  Parallel linear algebra routines
   Shared memory     :  Shared parallel matrices
   BLAS/LAPACK       :  OpenBLAS 0.3.27  USE64BITINT DYNAMIC_ARCH NO_AFFINITY SkylakeX SINGLE_THREADED
        Core in use  :  SkylakeX
   Copyright (c) 2011-2014, The OpenBLAS Project


NOTE: MaxCore=5000 MB was set to SCF,MP2,MDCI,CIPSI,MRCI and CIS
      => If you want to overwrite this, your respective input block should be placed after the MaxCore statement
Your calculation utilizes the atom-pairwise dispersion correction
with the zero-damping scheme (D30)


XCFun DFT library Copyright 2009-2010 Ulf Ekstrom and contributors.
See http://admol.org/xcfun for more information.
This is free software; see the source code for copying conditions.
There is ABSOLUTELY NO WARRANTY; not even for MERCHANTABILITY or FITNESS FOR A PARTICULAR PURPOSE.
For details see the documentation.
Scientific users of this library should cite U. Ekstrom, L. Visscher, R. Bast, A. J. Thorvaldsen and K. Ruud;
J.Chem.Theor.Comp. 2010, DOI: 10.1021/ct100117s
XCFun Version 0.99 

Warning: RI is on but no J-basis has been assigned. Assigning Def2/J (nothing to worry about!)
================================================================================

----- Orbital basis set information -----
Your calculation utilizes the basis: def2-TZVPP
   F. Weigend and R. Ahlrichs, Phys. Chem. Chem. Phys. 7, 3297 (2005).

----- AuxJ basis set information -----
Your calculation utilizes the auxiliary basis: def2/J
   F. Weigend, Phys. Chem. Chem. Phys. 8, 1057 (2006).

================================================================================
                                        WARNINGS
                       Please study these warnings very carefully!
================================================================================


================================================================================
                                       INPUT FILE
================================================================================
NAME = c60malonicester_SP.inp
|  1> ! wB97X-D3 def2-TZVPP TightSCF RIJCOSX SP
|  2> 
|  3> %pal
|  4> nprocs 28
|  5> end
|  6> 
|  7> %maxcore 5000
|  8> 
|  9> * xyz 0 1
| 10>   C           3.34804850443552     -1.94519700693359      0.41193859737490
| 11>   C           3.64050351924908     -0.52430840409676      0.44754504070177
| 12>   C           3.22095987737777      0.24357344510280      1.52656927828692
| 13>   C           2.64544031606440     -2.53675644016349      1.45453459090499
| 14>   C           3.04932329758835     -2.30944168404381     -0.96297830114166
| 15>   C           3.50909185923282     -0.01021486997194     -0.90560241010034
| 16>   C           2.66518201095643      1.56474452241886      1.30439990421887
| 17>   C           2.47515361729242     -0.37310151315687      2.60578697296284
| 18>   C           1.61381463203490     -3.51810952007566      1.17021137748280
| 19>   C           2.19709317639264     -1.73033029999688      2.57499139588659
| 20>   C           2.06457473189463     -3.24870129414740     -1.23339111963203
| 21>   C           3.14820122068406     -1.11070415770565     -1.77577681592045
| 22>   C           2.94669931383726      1.23947597652851     -1.11374261474855
| 23>   C           1.56422758408481      1.76209445728660      2.22753769300385
| 24>   C           2.52832289511476      2.03316568146677      0.01092300887555
| 25>   C           1.44844935920696      0.56673724604612      3.02187741613803
| 26>   C           1.33260210990602     -3.86877552276736     -0.14291683593475
| 27>   C           0.52923996148873     -3.31906909792850      2.11670753949193
| 28>   C           0.88530778830425     -2.20726395287049      2.97886872188417
| 29>   C           1.13835277574185     -3.03428281936796     -2.33140120389719
| 30>   C           2.25319077947524     -0.89505450769759     -2.81330079218302
| 31>   C           1.99474268265988      1.47504055144274     -2.17938478609283
| 32>   C           0.45655657651362      2.51870468017240      1.85444199585363
| 33>   C           1.40155166883642      2.84626825957115     -0.36296603886525
| 34>   C           0.19364110019036      0.12212764639485      3.38714902803138
| 35>   C          -0.04440625007592     -4.04372325876867     -0.56941489477482
| 36>   C          -0.78711524220448     -3.48612913486323      1.70886968028302
| 37>   C          -0.08877600738520     -1.30342919597774      3.38235986047557
| 38>   C          -0.16338742820965     -3.53202875791099     -1.92305326025842
| 39>   C           1.23054507025853     -1.88274043217073     -3.10318540831751
| 40>   C           1.67280139779444      0.42261546421606     -3.02025732719935
| 41>   C           0.99284773408525      2.44448235287989     -1.72125939576899
| 42>   C           0.56242628049953      3.31518206681004      0.63554347133556
| 43>   C          -0.89656093823497      2.01044115475975      2.16727171172380
| 44>   C          -0.98646023449681      0.84212350682639      2.94066593003661
| 45>   C          -1.08061335635639     -3.86089771785327      0.33582554632894
| 46>   C          -1.80667295933887     -2.55048346780055      2.14607358815329
| 47>   C          -1.45983074241186     -1.47782166562624      2.95785158981752
| 48>   C          -1.31516291901420     -2.86441773574601     -2.31407267127870
| 49>   C           0.02656353009115     -1.17692692818068     -3.50216304377983
| 50>   C           0.30341516147634      0.24952840739233     -3.44456665831815
| 51>   C          -0.33861929947559      2.28106666013973     -2.13622507876865
| 52>   C          -1.50930453846137      3.05212362303668     -0.00157610498269
| 53>   C          -1.91678930624335      2.21299068087216      1.11882075824323
| 54>   C          -2.01451840085355     -0.15926568574500      2.70535946584011
| 55>   C          -2.28693327099672     -3.16426987137622     -0.07289570302954
| 56>   C          -2.73760599471875     -2.35863732202371      1.04776322087898
| 57>   C          -2.40244514706193     -2.67660450713446     -1.36868267478071
| 58>   C          -1.21638599112687     -1.66516085416299     -3.12683982168588
| 59>   C          -0.66290969912817      1.13990696643767     -3.00328364724752
| 60>   C          -1.51771229488429      2.48028407599623     -1.26605002478021
| 61>   C          -2.83498393361833      1.20135872420131      0.86399863718370
| 62>   C          -2.91180823813571      0.01061087269237      1.67120064392769
| 63>   C          -3.28645907075885     -1.10626427260533      0.82225661218685
| 64>   C          -2.98034256848395     -1.36578658529691     -1.60252990675569
| 65>   C          -2.23990248376811     -0.74078635820907     -2.68529120686691
| 66>   C          -1.96141151314433      0.61698036833477     -2.63338469839287
| 67>   C          -2.43749322885078      1.40467556739865     -1.52816799891324
| 68>   C          -3.15577021203103      0.82445957839026     -0.49845805399059
| 69>   C          -3.42126850079989     -0.60085688923637     -0.53020218152688
| 70>   H           1.01329409011614      5.34132406282301      4.30395558943365
| 71>   C           0.00156739839484      5.77035702293343      4.34409264491051
| 72>   H          -0.07238574528875      6.40133900191094      5.24179841778758
| 73>   H           0.42258215407076      7.43318829045760      3.00509103958484
| 74>   C          -0.27936822124758      6.59526541253677      3.10540446975576
| 75>   O          -0.07757543445639      5.81350574187095      1.91905310495681
| 76>   H          -0.72581276983927      4.95161121429238      4.44088940723858
| 77>   C          -1.06379970700738      5.00848042914969      1.54056507793129
| 78>   C          -0.60366636606848      4.18952932199605      0.32371881280598
| 79>   O          -2.14122932599482      4.93886670132572      2.05980022907743
| 80>   H          -1.30777636276340      6.98460264477705      3.10398529283496
| 81>   C          -0.39187316824964      5.19469450536460     -0.81634596780634
| 82>   H          -3.62292677217363      6.42681289912368     -2.61792360913469
| 83>   O          -1.55276626996270      5.76807755090165     -1.11073644702511
| 84>   H          -1.13730933126203      6.30313723547912     -3.06264685563800
| 85>   O           0.65257781774354      5.45567630082662     -1.34070264158112
| 86>   C          -1.54177941330081      6.75942189156959     -2.14579186714807
| 87>   C          -2.95723200459695      7.25162255228719     -2.32655833565137
| 88>   H          -2.99071383293230      8.01904750994273     -3.11280725800038
| 89>   H          -3.34136609459692      7.69097061889314     -1.39493315469239
| 90>   H          -0.85183140308268      7.56594828633510     -1.85203054721983
| 91> *
| 92> 
| 93>                          ****END OF INPUT****
================================================================================

                       ****************************
                       * Single Point Calculation *
                       ****************************

---------------------------------
CARTESIAN COORDINATES (ANGSTROEM)
---------------------------------
  C      3.348049   -1.945197    0.411939
  C      3.640504   -0.524308    0.447545
  C      3.220960    0.243573    1.526569
  C      2.645440   -2.536756    1.454535
  C      3.049323   -2.309442   -0.962978
  C      3.509092   -0.010215   -0.905602
  C      2.665182    1.564745    1.304400
  C      2.475154   -0.373102    2.605787
  C      1.613815   -3.518110    1.170211
  C      2.197093   -1.730330    2.574991
  C      2.064575   -3.248701   -1.233391
  C      3.148201   -1.110704   -1.775777
  C      2.946699    1.239476   -1.113743
  C      1.564228    1.762094    2.227538
  C      2.528323    2.033166    0.010923
  C      1.448449    0.566737    3.021877
  C      1.332602   -3.868776   -0.142917
  C      0.529240   -3.319069    2.116708
  C      0.885308   -2.207264    2.978869
  C      1.138353   -3.034283   -2.331401
  C      2.253191   -0.895055   -2.813301
  C      1.994743    1.475041   -2.179385
  C      0.456557    2.518705    1.854442
  C      1.401552    2.846268   -0.362966
  C      0.193641    0.122128    3.387149
  C     -0.044406   -4.043723   -0.569415
  C     -0.787115   -3.486129    1.708870
  C     -0.088776   -1.303429    3.382360
  C     -0.163387   -3.532029   -1.923053
  C      1.230545   -1.882740   -3.103185
  C      1.672801    0.422615   -3.020257
  C      0.992848    2.444482   -1.721259
  C      0.562426    3.315182    0.635543
  C     -0.896561    2.010441    2.167272
  C     -0.986460    0.842124    2.940666
  C     -1.080613   -3.860898    0.335826
  C     -1.806673   -2.550483    2.146074
  C     -1.459831   -1.477822    2.957852
  C     -1.315163   -2.864418   -2.314073
  C      0.026564   -1.176927   -3.502163
  C      0.303415    0.249528   -3.444567
  C     -0.338619    2.281067   -2.136225
  C     -1.509305    3.052124   -0.001576
  C     -1.916789    2.212991    1.118821
  C     -2.014518   -0.159266    2.705359
  C     -2.286933   -3.164270   -0.072896
  C     -2.737606   -2.358637    1.047763
  C     -2.402445   -2.676605   -1.368683
  C     -1.216386   -1.665161   -3.126840
  C     -0.662910    1.139907   -3.003284
  C     -1.517712    2.480284   -1.266050
  C     -2.834984    1.201359    0.863999
  C     -2.911808    0.010611    1.671201
  C     -3.286459   -1.106264    0.822257
  C     -2.980343   -1.365787   -1.602530
  C     -2.239902   -0.740786   -2.685291
  C     -1.961412    0.616980   -2.633385
  C     -2.437493    1.404676   -1.528168
  C     -3.155770    0.824460   -0.498458
  C     -3.421269   -0.600857   -0.530202
  H      1.013294    5.341324    4.303956
  C      0.001567    5.770357    4.344093
  H     -0.072386    6.401339    5.241798
  H      0.422582    7.433188    3.005091
  C     -0.279368    6.595265    3.105404
  O     -0.077575    5.813506    1.919053
  H     -0.725813    4.951611    4.440889
  C     -1.063800    5.008480    1.540565
  C     -0.603666    4.189529    0.323719
  O     -2.141229    4.938867    2.059800
  H     -1.307776    6.984603    3.103985
  C     -0.391873    5.194695   -0.816346
  H     -3.622927    6.426813   -2.617924
  O     -1.552766    5.768078   -1.110736
  H     -1.137309    6.303137   -3.062647
  O      0.652578    5.455676   -1.340703
  C     -1.541779    6.759422   -2.145792
  C     -2.957232    7.251623   -2.326558
  H     -2.990714    8.019048   -3.112807
  H     -3.341366    7.690971   -1.394933
  H     -0.851831    7.565948   -1.852031

----------------------------
CARTESIAN COORDINATES (A.U.)
----------------------------
  NO LB      ZA    FRAG     MASS         X           Y           Z
   0 C     6.0000    0    12.011    6.326895   -3.675890    0.778451
   1 C     6.0000    0    12.011    6.879555   -0.990799    0.845738
   2 C     6.0000    0    12.011    6.086732    0.460287    2.884798
   3 C     6.0000    0    12.011    4.999158   -4.793775    2.748672
   4 C     6.0000    0    12.011    5.762386   -4.364212   -1.819765
   5 C     6.0000    0    12.011    6.631223   -0.019303   -1.711341
   6 C     6.0000    0    12.011    5.036464    2.956939    2.464959
   7 C     6.0000    0    12.011    4.677362   -0.705060    4.924224
   8 C     6.0000    0    12.011    3.049668   -6.648264    2.211379
   9 C     6.0000    0    12.011    4.151904   -3.269850    4.866029
  10 C     6.0000    0    12.011    3.901481   -6.139156   -2.330771
  11 C     6.0000    0    12.011    5.949238   -2.098927   -3.355732
  12 C     6.0000    0    12.011    5.568455    2.342270   -2.104669
  13 C     6.0000    0    12.011    2.955962    3.329876    4.209436
  14 C     6.0000    0    12.011    4.777838    3.842126    0.020641
  15 C     6.0000    0    12.011    2.737173    1.070978    5.710521
  16 C     6.0000    0    12.011    2.518253   -7.310926   -0.270074
  17 C     6.0000    0    12.011    1.000119   -6.272132    3.999998
  18 C     6.0000    0    12.011    1.672989   -4.171124    5.629246
  19 C     6.0000    0    12.011    2.151175   -5.733964   -4.405710
  20 C     6.0000    0    12.011    4.257914   -1.691408   -5.316368
  21 C     6.0000    0    12.011    3.769517    2.787423   -4.118440
  22 C     6.0000    0    12.011    0.862767    4.759662    3.504388
  23 C     6.0000    0    12.011    2.648549    5.378668   -0.685906
  24 C     6.0000    0    12.011    0.365929    0.230788    6.400784
  25 C     6.0000    0    12.011   -0.083916   -7.641530   -1.076038
  26 C     6.0000    0    12.011   -1.487432   -6.587829    3.229296
  27 C     6.0000    0    12.011   -0.167762   -2.463124    6.391734
  28 C     6.0000    0    12.011   -0.308757   -6.674567   -3.634044
  29 C     6.0000    0    12.011    2.325393   -3.557864   -5.864171
  30 C     6.0000    0    12.011    3.161137    0.798627   -5.707459
  31 C     6.0000    0    12.011    1.876210    4.619402   -3.252709
  32 C     6.0000    0    12.011    1.062832    6.264786    1.201003
  33 C     6.0000    0    12.011   -1.694255    3.799183    4.095550
  34 C     6.0000    0    12.011   -1.864140    1.591383    5.557053
  35 C     6.0000    0    12.011   -2.042063   -7.296039    0.634618
  36 C     6.0000    0    12.011   -3.414117   -4.819715    4.055491
  37 C     6.0000    0    12.011   -2.758680   -2.792678    5.589529
  38 C     6.0000    0    12.011   -2.485298   -5.412965   -4.372964
  39 C     6.0000    0    12.011    0.050198   -2.224070   -6.618129
  40 C     6.0000    0    12.011    0.573372    0.471540   -6.509288
  41 C     6.0000    0    12.011   -0.639898    4.310591   -4.036880
  42 C     6.0000    0    12.011   -2.852172    5.767678   -0.002978
  43 C     6.0000    0    12.011   -3.622207    4.181946    2.114265
  44 C     6.0000    0    12.011   -3.806888   -0.300969    5.112388
  45 C     6.0000    0    12.011   -4.321678   -5.979603   -0.137753
  46 C     6.0000    0    12.011   -5.173326   -4.457179    1.979986
  47 C     6.0000    0    12.011   -4.539963   -5.058049   -2.586435
  48 C     6.0000    0    12.011   -2.298636   -3.146698   -5.908871
  49 C     6.0000    0    12.011   -1.252718    2.154112   -5.675384
  50 C     6.0000    0    12.011   -2.868061    4.687058   -2.392488
  51 C     6.0000    0    12.011   -5.357343    2.270239    1.632721
  52 C     6.0000    0    12.011   -5.502520    0.020052    3.158112
  53 C     6.0000    0    12.011   -6.210508   -2.090537    1.553840
  54 C     6.0000    0    12.011   -5.632031   -2.580963   -3.028343
  55 C     6.0000    0    12.011   -4.232802   -1.399883   -5.074465
  56 C     6.0000    0    12.011   -3.706531    1.165924   -4.976376
  57 C     6.0000    0    12.011   -4.606195    2.654452   -2.887819
  58 C     6.0000    0    12.011   -5.963541    1.558003   -0.941949
  59 C     6.0000    0    12.011   -6.465260   -1.135455   -1.001937
  60 H     1.0000    0     1.008    1.914848   10.093640    8.133297
  61 C     6.0000    0    12.011    0.002962   10.904394    8.209145
  62 H     1.0000    0     1.008   -0.136789   12.096778    9.905563
  63 H     1.0000    0     1.008    0.798565   14.046690    5.678799
  64 C     6.0000    0    12.011   -0.527929   12.463245    5.868364
  65 O     8.0000    0    15.999   -0.146596   10.985934    3.626485
  66 H     1.0000    0     1.008   -1.371587    9.357189    8.392065
  67 C     6.0000    0    12.011   -2.010290    9.464656    2.911246
  68 C     6.0000    0    12.011   -1.140764    7.917063    0.611740
  69 O     8.0000    0    15.999   -4.046337    9.333105    3.892458
  70 H     1.0000    0     1.008   -2.471339   13.198986    5.865682
  71 C     6.0000    0    12.011   -0.740533    9.816550   -1.542670
  72 H     1.0000    0     1.008   -6.846339   12.144916   -4.947159
  73 O     8.0000    0    15.999   -2.934303   10.900087   -2.098988
  74 H     1.0000    0     1.008   -2.149203   11.911203   -5.787564
  75 O     8.0000    0    15.999    1.233193   10.309734   -2.533561
  76 C     6.0000    0    12.011   -2.913541   12.773456   -4.054959
  77 C     6.0000    0    12.011   -5.588359   13.703581   -4.396558
  78 H     1.0000    0     1.008   -5.651630   15.153804   -5.882353
  79 H     1.0000    0     1.008   -6.314267   14.533828   -2.636042
  80 H     1.0000    0     1.008   -1.609728   14.297570   -3.499831

--------------------------------
INTERNAL COORDINATES (ANGSTROEM)
--------------------------------
 C      0   0   0     0.000000000000     0.00000000     0.00000000
 C      1   0   0     1.451110669855     0.00000000     0.00000000
 C      2   1   0     1.389227377740   119.96180030     0.00000000
 C      1   2   3     1.389462930464   120.02513680     0.18659734
 C      1   2   3     1.453377931522   108.06142809   142.83646434
 C      2   1   3     1.453467994085   107.77437479   217.70167314
 C      3   2   1     1.450427965503   120.01520658   221.58574625
 C      3   2   1     1.449560559007   119.90090432   359.12446452
 C      4   1   2     1.451945284469   120.00692000   138.27389224
 C      8   3   2     1.385761868500   120.22224324     1.00425674
 C      5   1   2     1.387465835692   119.99437583   217.21934614
 C      6   2   1     1.448627703019   108.24335391   359.51931365
 C      6   2   1     1.386122264353   119.69392641   141.35928086
 C      7   3   2     1.450252055307   108.50230466   141.22159619
 C      7   3   2     1.382472885311   119.33277442     1.60286276
 C     14   7   3     1.439881611651   107.41131571     0.34133481
 C      9   4   1     1.387931134069   119.99954113     0.22221713
 C      9   4   1     1.453194512217   108.06917205   217.55007326
 C     18   9   4     1.451281117597   107.98370011     0.47988389
 C     11   5   1     1.452407842011   120.00111629   138.21813996
 C     12   6   2     1.387084879429   119.46877134   142.46462177
 C     13   6   2     1.448207628051   121.59040394   222.84701691
 C     14   7   3     1.392334187478   120.48531524   213.70116812
 C     15   7   3     1.438937878753   120.80325689   143.72842112
 C     16  14   7     1.380450945689   119.10707719   216.62265566
 C     17   9   4     1.452122352967   120.02967734   221.39246571
 C     18   9   4     1.388175708488   119.99252871   142.99978207
 C     19  18   9     1.388726613741   119.94113582   141.80868408
 C     26  17   9     1.452007096218   108.00235921   142.69201212
 C     20  11   5     1.389316431513   120.00069621   359.40257056
 C     22  13   6     1.385031185754   118.42001246   358.52004912
 C     22  13   6     1.467477348245   109.05782507   144.40343815
 C     24  15   7     1.386013282019   118.55906656     9.40073701
 C     23  14   7     1.478891899740   118.97642996   135.39009115
 C     34  23  14     1.403989539441   117.45791975     5.83922183
 C     26  17   9     1.388023991769   120.03306949   359.97679641
 C     27  18   9     1.451233272055   120.00654905   221.82781553
 C     37  27  18     1.389203508948   119.89796258     0.88068276
 C     29  26  17     1.387511238848   120.02014165   217.03492583
 C     30  20  11     1.451525888532   120.04550056   221.87485703
 C     31  22  13     1.444027770485   119.33406430   139.95118239
 C     32  22  13     1.404174372420   118.57061985   216.68615680
 C     33  24  15     2.183389494708   108.87356862   224.17208002
 C     43  33  24     1.457901595351    96.33278447   121.57573785
 C     38  37  27     1.452590975870   120.26380806   137.26048805
 C     36  26  17     1.451740731888   119.99481730   138.62391931
 C     46  36  26     1.451904312349   107.87148380   217.40440720
 C     46  36  26     1.389325151703   120.00693006   359.78136404
 C     40  30  20     1.387142170010   119.84910475   359.10332983
 C     41  31  22     1.386105483176   119.37824691     0.03739738
 C     43  33  24     1.387791573607   108.73954782   359.71750511
 C     44  43  33     1.389753540337   117.56321261   215.52727494
 C     45  38  37     1.379663569910   119.36753572     1.46485317
 C     47  46  36     1.385832307515   119.91920044   142.61901385
 C     48  46  36     1.451514237546   120.02290497   221.75805947
 C     49  40  30     1.448108904305   119.41628148   138.79114366
 C     56  49  40     1.387004682779   119.62838693   359.49360196
 C     57  56  49     1.438270308206   119.89545371   220.68436279
 C     58  57  56     1.383067239559   120.94797837     1.00337876
 C     55  48  46     1.389035589176   119.95506097   359.81816130
 H     23  14   7     3.778525331859    96.60391170   246.29854253
 C     61  23  14     1.099668660472   100.34346496   200.80370831
 H     62  61  23     1.099764965759   108.39126246   162.68596254
 H     62  61  23     2.176048379016    95.60492504   259.23309863
 C     64  62  61     1.097684773979    40.24602703   124.95711251
 O     65  64  62     1.435025460485   104.49995611   240.21267198
 H     62  61  23     1.099452691799   108.74474501    45.37496027
 C     66  65  64     1.328140525883   117.47591738   202.07393901
 C     43  33  24     1.489862076455    42.90596109   243.79146468
 O     68  66  65     1.198042485540   125.41633123     4.82109503
 H     65  64  62     1.099640304830   109.12729989   123.90645930
 C     69  43  33     1.534588253732   114.94439843   120.77247210
 H     72  69  43     3.899167234860   115.84070610    47.89330078
 O     72  69  43     1.327820268248   109.08041121    63.07287573
 H     74  72  69     2.066118964926    98.36511869   204.37439067
 O     72  69  43     1.197472037685   126.04657872   241.23418562
 C     75  74  72     1.101097091344    41.13200748   229.22131533
 C     73  72  69     1.099251659140    67.22039589   131.22910245
 H     78  73  72     1.099204014893   108.41028939   142.99738136
 H     78  73  72     1.099323064675   108.23344148   260.44046587
 H     77  75  74     1.101275985093   107.18514995   117.08922299

---------------------------
INTERNAL COORDINATES (A.U.)
---------------------------
 C      0   0   0     0.000000000000     0.00000000     0.00000000
 C      1   0   0     2.742201756037     0.00000000     0.00000000
 C      2   1   0     2.625259281673   119.96180030     0.00000000
 C      1   2   3     2.625704411813   120.02513680     0.18659734
 C      1   2   3     2.746486259662   108.06142809   142.83646434
 C      2   1   3     2.746656453240   107.77437479   217.70167314
 C      3   2   1     2.740911631782   120.01520658   221.58574625
 C      3   2   1     2.739272471057   119.90090432   359.12446452
 C      4   1   2     2.743778949086   120.00692000   138.27389224
 C      8   3   2     2.618710418296   120.22224324     1.00425674
 C      5   1   2     2.621930449630   119.99437583   217.21934614
 C      6   2   1     2.737509628717   108.24335391   359.51931365
 C      6   2   1     2.619391467758   119.69392641   141.35928086
 C      7   3   2     2.740579209687   108.50230466   141.22159619
 C      7   3   2     2.612495140809   119.33277442     1.60286276
 C     14   7   3     2.720981911289   107.41131571     0.34133481
 C      9   4   1     2.622809736134   119.99954113     0.22221713
 C      9   4   1     2.746139647407   108.06917205   217.55007326
 C     18   9   4     2.742523855590   107.98370011     0.47988389
 C     11   5   1     2.744653056160   120.00111629   138.21813996
 C     12   6   2     2.621210546624   119.46877134   142.46462177
 C     13   6   2     2.736715802072   121.59040394   222.84701691
 C     14   7   3     2.631130301230   120.48531524   213.70116812
 C     15   7   3     2.719198514568   120.80325689   143.72842112
 C     16  14   7     2.608674228665   119.10707719   216.62265566
 C     17   9   4     2.744113560053   120.02967734   221.39246571
 C     18   9   4     2.623271914804   119.99252871   142.99978207
 C     19  18   9     2.624312974859   119.94113582   141.80868408
 C     26  17   9     2.743895756362   108.00235921   142.69201212
 C     20  11   5     2.625427568917   120.00069621   359.40257056
 C     22  13   6     2.617329628016   118.42001246   358.52004912
 C     22  13   6     2.773130295916   109.05782507   144.40343815
 C     24  15   7     2.619185520993   118.55906656     9.40073701
 C     23  14   7     2.794700672183   118.97642996   135.39009115
 C     34  23  14     2.653155724434   117.45791975     5.83922183
 C     26  17   9     2.622985211756   120.03306949   359.97679641
 C     27  18   9     2.742433440618   120.00654905   221.82781553
 C     37  27  18     2.625214176194   119.89796258     0.88068276
 C     29  26  17     2.622016249160   120.02014165   217.03492583
 C     30  20  11     2.742986405622   120.04550056   221.87485703
 C     31  22  13     2.728817015994   119.33406430   139.95118239
 C     32  22  13     2.653505008144   118.57061985   216.68615680
 C     33  24  15     4.126008188679   108.87356862   224.17208002
 C     43  33  24     2.755034745420    96.33278447   121.57573785
 C     38  37  27     2.744999129000   120.26380806   137.26048805
 C     36  26  17     2.743392400726   119.99481730   138.62391931
 C     46  36  26     2.743701523000   107.87148380   217.40440720
 C     46  36  26     2.625444047686   120.00693006   359.78136404
 C     40  30  20     2.621318810132   119.84910475   359.10332983
 C     41  31  22     2.619359755929   119.37824691     0.03739738
 C     43  33  24     2.622546005082   108.73954782   359.71750511
 C     44  43  33     2.626253584884   117.56321261   215.52727494
 C     45  38  37     2.607186304077   119.36753572     1.46485317
 C     47  46  36     2.618843528743   119.91920044   142.61901385
 C     48  46  36     2.742964388450   120.02290497   221.75805947
 C     49  40  30     2.736529241229   119.41628148   138.79114366
 C     56  49  40     2.621058996918   119.62838693   359.49360196
 C     57  56  49     2.717936989060   119.89545371   220.68436279
 C     58  57  56     2.613618307564   120.94797837     1.00337876
 C     55  48  46     2.624896853813   119.95506097   359.81816130
 H     23  14   7     7.140378067298    96.60391170   246.29854253
 C     61  23  14     2.078072606349   100.34346496   200.80370831
 H     62  61  23     2.078254596967   108.39126246   162.68596254
 H     62  61  23     4.112135490503    95.60492504   259.23309863
 C     64  62  61     2.074323604196    40.24602703   124.95711251
 O     65  64  62     2.711805115521   104.49995611   240.21267198
 H     62  61  23     2.077664484703   108.74474501    45.37496027
 C     66  65  64     2.509821861281   117.47591738   202.07393901
 C     43  33  24     2.815431301816    42.90596109   243.79146468
 O     68  66  65     2.263972194473   125.41633123     4.82109503
 H     65  64  62     2.078019021951   109.12729989   123.90645930
 C     69  43  33     2.899951527885   114.94439843   120.77247210
 H     72  69  43     7.368358224244   115.84070610    47.89330078
 O     72  69  43     2.509216662058   109.08041121    63.07287573
 H     74  72  69     3.904399003811    98.36511869   204.37439067
 O     72  69  43     2.262894204253   126.04657872   241.23418562
 C     75  74  72     2.080771949498    41.13200748   229.22131533
 C     73  72  69     2.077284588034    67.22039589   131.22910245
 H     78  73  72     2.077194553454   108.41028939   142.99738136
 H     78  73  72     2.077419524940   108.23344148   260.44046587
 H     77  75  74     2.081110009691   107.18514995   117.08922299

---------------------
BASIS SET INFORMATION
---------------------
There are 3 groups of distinct atoms

 Group   1 Type C   : 11s6p2d1f contracted to 5s3p2d1f pattern {62111/411/11/1}
 Group   2 Type H   : 5s2p1d contracted to 3s2p1d pattern {311/11/1}
 Group   3 Type O   : 11s6p2d1f contracted to 5s3p2d1f pattern {62111/411/11/1}

Atom   0C    basis set group =>   1
Atom   1C    basis set group =>   1
Atom   2C    basis set group =>   1
Atom   3C    basis set group =>   1
Atom   4C    basis set group =>   1
Atom   5C    basis set group =>   1
Atom   6C    basis set group =>   1
Atom   7C    basis set group =>   1
Atom   8C    basis set group =>   1
Atom   9C    basis set group =>   1
Atom  10C    basis set group =>   1
Atom  11C    basis set group =>   1
Atom  12C    basis set group =>   1
Atom  13C    basis set group =>   1
Atom  14C    basis set group =>   1
Atom  15C    basis set group =>   1
Atom  16C    basis set group =>   1
Atom  17C    basis set group =>   1
Atom  18C    basis set group =>   1
Atom  19C    basis set group =>   1
Atom  20C    basis set group =>   1
Atom  21C    basis set group =>   1
Atom  22C    basis set group =>   1
Atom  23C    basis set group =>   1
Atom  24C    basis set group =>   1
Atom  25C    basis set group =>   1
Atom  26C    basis set group =>   1
Atom  27C    basis set group =>   1
Atom  28C    basis set group =>   1
Atom  29C    basis set group =>   1
Atom  30C    basis set group =>   1
Atom  31C    basis set group =>   1
Atom  32C    basis set group =>   1
Atom  33C    basis set group =>   1
Atom  34C    basis set group =>   1
Atom  35C    basis set group =>   1
Atom  36C    basis set group =>   1
Atom  37C    basis set group =>   1
Atom  38C    basis set group =>   1
Atom  39C    basis set group =>   1
Atom  40C    basis set group =>   1
Atom  41C    basis set group =>   1
Atom  42C    basis set group =>   1
Atom  43C    basis set group =>   1
Atom  44C    basis set group =>   1
Atom  45C    basis set group =>   1
Atom  46C    basis set group =>   1
Atom  47C    basis set group =>   1
Atom  48C    basis set group =>   1
Atom  49C    basis set group =>   1
Atom  50C    basis set group =>   1
Atom  51C    basis set group =>   1
Atom  52C    basis set group =>   1
Atom  53C    basis set group =>   1
Atom  54C    basis set group =>   1
Atom  55C    basis set group =>   1
Atom  56C    basis set group =>   1
Atom  57C    basis set group =>   1
Atom  58C    basis set group =>   1
Atom  59C    basis set group =>   1
Atom  60H    basis set group =>   2
Atom  61C    basis set group =>   1
Atom  62H    basis set group =>   2
Atom  63H    basis set group =>   2
Atom  64C    basis set group =>   1
Atom  65O    basis set group =>   3
Atom  66H    basis set group =>   2
Atom  67C    basis set group =>   1
Atom  68C    basis set group =>   1
Atom  69O    basis set group =>   3
Atom  70H    basis set group =>   2
Atom  71C    basis set group =>   1
Atom  72H    basis set group =>   2
Atom  73O    basis set group =>   3
Atom  74H    basis set group =>   2
Atom  75O    basis set group =>   3
Atom  76C    basis set group =>   1
Atom  77C    basis set group =>   1
Atom  78H    basis set group =>   2
Atom  79H    basis set group =>   2
Atom  80H    basis set group =>   2
---------------------------------
AUXILIARY/J BASIS SET INFORMATION
---------------------------------
There are 3 groups of distinct atoms

 Group   1 Type C   : 12s5p4d2f1g contracted to 6s4p3d1f1g pattern {711111/2111/211/2/1}
 Group   2 Type H   : 5s2p1d contracted to 3s1p1d pattern {311/2/1}
 Group   3 Type O   : 12s5p4d2f1g contracted to 6s4p3d1f1g pattern {711111/2111/211/2/1}

Atom   0C    basis set group =>   1
Atom   1C    basis set group =>   1
Atom   2C    basis set group =>   1
Atom   3C    basis set group =>   1
Atom   4C    basis set group =>   1
Atom   5C    basis set group =>   1
Atom   6C    basis set group =>   1
Atom   7C    basis set group =>   1
Atom   8C    basis set group =>   1
Atom   9C    basis set group =>   1
Atom  10C    basis set group =>   1
Atom  11C    basis set group =>   1
Atom  12C    basis set group =>   1
Atom  13C    basis set group =>   1
Atom  14C    basis set group =>   1
Atom  15C    basis set group =>   1
Atom  16C    basis set group =>   1
Atom  17C    basis set group =>   1
Atom  18C    basis set group =>   1
Atom  19C    basis set group =>   1
Atom  20C    basis set group =>   1
Atom  21C    basis set group =>   1
Atom  22C    basis set group =>   1
Atom  23C    basis set group =>   1
Atom  24C    basis set group =>   1
Atom  25C    basis set group =>   1
Atom  26C    basis set group =>   1
Atom  27C    basis set group =>   1
Atom  28C    basis set group =>   1
Atom  29C    basis set group =>   1
Atom  30C    basis set group =>   1
Atom  31C    basis set group =>   1
Atom  32C    basis set group =>   1
Atom  33C    basis set group =>   1
Atom  34C    basis set group =>   1
Atom  35C    basis set group =>   1
Atom  36C    basis set group =>   1
Atom  37C    basis set group =>   1
Atom  38C    basis set group =>   1
Atom  39C    basis set group =>   1
Atom  40C    basis set group =>   1
Atom  41C    basis set group =>   1
Atom  42C    basis set group =>   1
Atom  43C    basis set group =>   1
Atom  44C    basis set group =>   1
Atom  45C    basis set group =>   1
Atom  46C    basis set group =>   1
Atom  47C    basis set group =>   1
Atom  48C    basis set group =>   1
Atom  49C    basis set group =>   1
Atom  50C    basis set group =>   1
Atom  51C    basis set group =>   1
Atom  52C    basis set group =>   1
Atom  53C    basis set group =>   1
Atom  54C    basis set group =>   1
Atom  55C    basis set group =>   1
Atom  56C    basis set group =>   1
Atom  57C    basis set group =>   1
Atom  58C    basis set group =>   1
Atom  59C    basis set group =>   1
Atom  60H    basis set group =>   2
Atom  61C    basis set group =>   1
Atom  62H    basis set group =>   2
Atom  63H    basis set group =>   2
Atom  64C    basis set group =>   1
Atom  65O    basis set group =>   3
Atom  66H    basis set group =>   2
Atom  67C    basis set group =>   1
Atom  68C    basis set group =>   1
Atom  69O    basis set group =>   3
Atom  70H    basis set group =>   2
Atom  71C    basis set group =>   1
Atom  72H    basis set group =>   2
Atom  73O    basis set group =>   3
Atom  74H    basis set group =>   2
Atom  75O    basis set group =>   3
Atom  76C    basis set group =>   1
Atom  77C    basis set group =>   1
Atom  78H    basis set group =>   2
Atom  79H    basis set group =>   2
Atom  80H    basis set group =>   2
--------------------------------------------------------------------------
WARNING: There was an error initializing an OpenFabrics device.

  Local host:   ga01
  Local device: mlx5_0
--------------------------------------------------------------------------


           ************************************************************
           *        Program running with 28 parallel MPI-processes    *
           *              working on a common directory               *
           ************************************************************
------------------------------------------------------------------------------
                             ORCA STARTUP CALCULATIONS
                           -- RI-GTO INTEGRALS CHOSEN --
------------------------------------------------------------------------------
------------------------------------------------------------------------------
                   ___                                                        
                  /   \      - P O W E R E D   B Y -                         
                 /     \                                                     
                 |  |  |   _    _      __       _____    __    __             
                 |  |  |  | |  | |    /  \     |  _  \  |  |  /  |          
                  \  \/   | |  | |   /    \    | | | |  |  | /  /          
                 / \  \   | |__| |  /  /\  \   | |_| |  |  |/  /          
                |  |  |   |  __  | /  /__\  \  |    /   |      \           
                |  |  |   | |  | | |   __   |  |    \   |  |\   \          
                \     /   | |  | | |  |  |  |  | |\  \  |  | \   \       
                 \___/    |_|  |_| |__|  |__|  |_| \__\ |__|  \__/        
                                                                              
                      - O R C A' S   B I G   F R I E N D -                    
                                      &                                       
                       - I N T E G R A L  F E E D E R -                       
                                                                              
 v1 FN, 2020, v2 2021, v3 2022-2024                                           
------------------------------------------------------------------------------


----------------------
SHARK INTEGRAL PACKAGE
----------------------

Number of atoms                             ...     81
Number of basis functions                   ...   2341
Number of shells                            ...    841
Maximum angular momentum                    ...      3
Integral batch strategy                     ... SHARK/LIBINT Hybrid
RI-J (if used) integral strategy            ... SPLIT-RIJ (Revised 2003 algorithm where possible)
Printlevel                                  ...      1
Contraction scheme used                     ... SEGMENTED contraction
Prescreening option                         ... SCHWARTZ
   Thresh                                   ... 2.500e-11
   Tcut                                     ... 2.500e-12
   Tpresel                                  ... 2.500e-12 
Coulomb Range Separation                    ... NOT USED
Exchange Range Separation                   ... Long Range
   Mu parameter                             ... 2.500e-01
   Scaling (regular/separated)              ... 1.957e-01 8.043e-01
Multipole approximations                    ... NOT USED
Finite Nucleus Model                        ... NOT USED
CABS basis                                  ... NOT available
Auxiliary Coulomb fitting basis             ... AVAILABLE
   # of basis functions in Aux-J            ...   3589
   # of shells in Aux-J                     ...   1115
   Maximum angular momentum in Aux-J        ...      4
Auxiliary J/K fitting basis                 ... NOT available
Auxiliary Correlation fitting basis         ... NOT available
Auxiliary 'external' fitting basis          ... NOT available

Checking pre-screening integrals            ... done (  0.0 sec) Dimension = 841
Check shell pair data                       ... done (  0.0 sec)
Shell pair information
Shell pair cut-off parameter TPreSel        ...   2.5e-12
Total number of shell pairs                 ...    354061
Shell pairs after pre-screening             ...    210233
Total number of primitive shell pairs       ...   1127342
Primitive shell pairs kept                  ...    403303
          la=0 lb=0:  40925 shell pairs
          la=1 lb=0:  58155 shell pairs
          la=1 lb=1:  20202 shell pairs
          la=2 lb=0:  30961 shell pairs
          la=2 lb=1:  23277 shell pairs
          la=2 lb=2:   6265 shell pairs
          la=3 lb=0:  13439 shell pairs
          la=3 lb=1:  10503 shell pairs
          la=3 lb=2:   5417 shell pairs
          la=3 lb=3:   1089 shell pairs

Calculating one electron integrals          ... done (  0.5 sec)
Calculating RI/J V-Matrix + Cholesky decomp.... done (  0.6 sec)
Calculating Nuclear repulsion               ... done (  0.0 sec) ENN=  11324.964719670812 Eh

Diagonalization of the overlap matrix:
Smallest eigenvalue                        ... 1.152e-06
Time for diagonalization                   ...    0.400 sec
Threshold for overlap eigenvalues          ... 1.000e-07
Number of eigenvalues below threshold      ... 0
[ga01:3778980] 27 more processes have sent help message help-mpi-btl-openib.txt / error in device init
[ga01:3778980] Set MCA parameter "orte_base_help_aggregate" to 0 to see all help / error messages
Time for construction of square roots      ...    0.426 sec
Total time needed                          ...    0.864 sec

-------------------
DFT GRID GENERATION
-------------------

General Integration Accuracy     IntAcc      ... 4.388
Radial Grid Type                 RadialGrid  ... OptM3 with GC (2021)
Angular Grid (max. ang.)         AngularGrid ... 4 (Lebedev-302)
Angular grid pruning method      GridPruning ... 4 (adaptive)
Weight generation scheme         WeightScheme... mBecke (2022)
Basis function cutoff            BFCut       ... 1.0000e-11
Integration weight cutoff        WCut        ... 1.0000e-14
Partially contracted basis set               ... off
Rotationally invariant grid construction     ... off
Angular grids for H and He will be reduced by one unit

Total number of grid points                  ...   445565
Total number of batches                      ...     6995
Average number of points per batch           ...       63
Average number of grid points per atom       ...     5501

--------------------
COSX GRID GENERATION
--------------------

GRIDX 1
-------
General Integration Accuracy     IntAcc      ... 3.816
Radial Grid Type                 RadialGrid  ... OptM3 with GC (2021)
Angular Grid (max. ang.)         AngularGrid ... 1 (Lebedev-50)
Angular grid pruning method      GridPruning ... 4 (adaptive)
Weight generation scheme         WeightScheme... mBecke (2022)
Basis function cutoff            BFCut       ... 1.0000e-11
Integration weight cutoff        WCut        ... 1.0000e-14
Partially contracted basis set               ... on
Rotationally invariant grid construction     ... off
Angular grids for H and He will be reduced by one unit

Total number of grid points                  ...    55968
Total number of batches                      ...      472
Average number of points per batch           ...      118
Average number of grid points per atom       ...      691
UseSFitting                                  ... on

GRIDX 2
-------
General Integration Accuracy     IntAcc      ... 4.020
Radial Grid Type                 RadialGrid  ... OptM3 with GC (2021)
Angular Grid (max. ang.)         AngularGrid ... 2 (Lebedev-110)
Angular grid pruning method      GridPruning ... 4 (adaptive)
Weight generation scheme         WeightScheme... mBecke (2022)
Basis function cutoff            BFCut       ... 1.0000e-11
Integration weight cutoff        WCut        ... 1.0000e-14
Partially contracted basis set               ... on
Rotationally invariant grid construction     ... off
Angular grids for H and He will be reduced by one unit

Total number of grid points                  ...   125985
Total number of batches                      ...     1029
Average number of points per batch           ...      122
Average number of grid points per atom       ...     1555
UseSFitting                                  ... on

GRIDX 3
-------
General Integration Accuracy     IntAcc      ... 4.338
Radial Grid Type                 RadialGrid  ... OptM3 with GC (2021)
Angular Grid (max. ang.)         AngularGrid ... 3 (Lebedev-194)
Angular grid pruning method      GridPruning ... 4 (adaptive)
Weight generation scheme         WeightScheme... mBecke (2022)
Basis function cutoff            BFCut       ... 1.0000e-11
Integration weight cutoff        WCut        ... 1.0000e-14
Partially contracted basis set               ... on
Rotationally invariant grid construction     ... off
Angular grids for H and He will be reduced by one unit

Total number of grid points                  ...   275806
Total number of batches                      ...     2189
Average number of points per batch           ...      125
Average number of grid points per atom       ...     3405
UseSFitting                                  ... on
Initializing property integral containers    ... done (  0.0 sec)

SHARK setup successfully completed in  13.6 seconds

Maximum memory used throughout the entire STARTUP-calculation: 435.1 MB
--------------------------------------------------------------------------
WARNING: There was an error initializing an OpenFabrics device.

  Local host:   ga01
  Local device: mlx5_0
--------------------------------------------------------------------------


           ************************************************************
           *        Program running with 28 parallel MPI-processes    *
           *              working on a common directory               *
           ************************************************************
-------------------------------------------------------------------------------
                                 ORCA GUESS
                   Start orbitals & Density for SCF / CASSCF
-------------------------------------------------------------------------------

------------
SCF SETTINGS
------------
Hamiltonian:
 Density Functional     Method          .... DFT(GTOs)
 Exchange Functional    Exchange        .... WB97X-D3
 Correlation Functional Correlation     .... WB97X-D3
 Gradients option       PostSCFGGA      .... off
 Hybrid DFT is turned on
   Fraction HF Exchange ScalHFX         ....  0.195728
   Scaling of DF-GGA-X  ScalDFX         ....  0.000000
   Scaling of DF-GGA-C  ScalDFC         ....  1.000000
   Scaling of DF-LDA-C  ScalLDAC        ....  1.000000
   Perturbative correction              ....  0.000000
 Long-range corrected/Screened/Range-Separated Hybrid DFT is turned on
   Amount of maximum screened exact exchange              ....  0.804272
   Range separation parameter mu (erf(mu*r12)/r12)        ....  0.250000
 RI-approximation to the Coulomb term is turned on
   Number of AuxJ basis functions       .... 3589
   RIJ-COSX (HFX calculated with COS-X)).... on


General Settings:
 Integral files         IntName         .... c60malonicester_SP
 Hartree-Fock type      HFTyp           .... RHF
 Total Charge           Charge          ....    0
 Multiplicity           Mult            ....    1
 Number of Electrons    NEL             ....  444
 Basis Dimension        Dim             .... 2341
 Nuclear Repulsion      ENuc            ....  11324.9647196708 Eh

Convergence Acceleration:
 AO-DIIS                CNVDIIS         .... on
   Start iteration      DIISMaxIt       ....    12
   Startup error        DIISStart       ....  0.200000
   # of expansion vecs  DIISMaxEq       ....     5
   Bias factor          DIISBfac        ....   1.050
   Max. coefficient     DIISMaxC        ....  10.000
 MO-DIIS                CNVKDIIS        .... off
 Trust-Rad. Augm. Hess. CNVTRAH         .... auto
   Auto Start mean grad. ratio tolernc. ....  1.125000
   Auto Start start iteration           ....    50
   Auto Start num. interpolation iter.  ....    10
   Max. Number of Micro iterations      ....    24
   Max. Number of Macro iterations      .... Maxiter - #DIIS iter
   Number of Davidson start vectors     ....     2
   Converg. threshold    (grad. norm)   ....   1.000e-05
   Grad. Scal. Fac. for Micro threshold ....   0.100
   Minimum threshold for Micro iter.    ....   1.000e-02
   NR start threshold (gradient norm)   ....   1.000e-04
   Initial trust radius                 ....   0.400
   Minimum AH scaling param. (alpha)    ....   1.000
   Maximum AH scaling param. (alpha)    .... 1000.000
   Quad. conv. algorithm                .... NR
   White noise on init. David. guess    .... on
   Maximum white noise                  ....   0.010
   Pseudo random numbers                .... off
   Inactive MOs                         .... canonical
   Orbital update algorithm             .... Taylor
   Preconditioner                       .... Diag
   Full preconditioner red. dimension   ....   250
 SOSCF                  CNVSOSCF        .... on
   Start iteration      SOSCFMaxIt      ....   150
   Startup grad/error   SOSCFStart      ....  0.003300
   Hessian update       SOSCFHessUp     .... L-BFGS
 Level Shifting         CNVShift        .... on
   Level shift para.    LevelShift      ....    0.2500
   Turn off err/grad.   ShiftErr        ....    0.0010
 Zerner damping         CNVZerner       .... off
 Static damping         CNVDamp         .... on
   Fraction old density DampFac         ....    0.7000
   Max. Damping (<1)    DampMax         ....    0.9800
   Min. Damping (>=0)   DampMin         ....    0.0000
   Turn off err/grad.   DampErr         ....    0.1000

SCF Procedure:
 Maximum # iterations   MaxIter         ....   125
 SCF integral mode      SCFMode         .... Direct
   Integral package                     .... SHARK and LIBINT hybrid scheme
 Reset frequency        DirectResetFreq ....    20
 Integral Threshold     Thresh          ....  2.500e-11 Eh
 Primitive CutOff       TCut            ....  2.500e-12 Eh

Convergence Tolerance:
 Convergence Check Mode ConvCheckMode   .... Total+1el-Energy
 Convergence forced     ConvForced      .... 0
 Energy Change          TolE            ....  1.000e-08 Eh
 1-El. energy change                    ....  1.000e-05 Eh
 Orbital Gradient       TolG            ....  1.000e-05
 Orbital Rotation angle TolX            ....  1.000e-05
 DIIS Error             TolErr          ....  5.000e-07

------------------------------
INITIAL GUESS: MODEL POTENTIAL
------------------------------
Loading Hartree-Fock densities                     ... done
Calculating cut-offs                               ... done
Initializing the effective Hamiltonian             ... done
Setting up the integral package (SHARK)            ... done
Starting the Coulomb interaction                   ... done (   1.6 sec)
Making the grid                                    ... done (   0.6 sec)
Mapping shells                                     ... done
Starting the XC term evaluation                    ... done (   0.9 sec)
  promolecular density results
     # of electrons  =    444.020090327
     EX              =   -379.103876989
     EC              =    -15.539962595
     EX+EC           =   -394.643839585
Transforming the Hamiltonian                       ... [ga01:3779132] 27 more processes have sent help message help-mpi-btl-openib.txt / error in device init
[ga01:3779132] Set MCA parameter "orte_base_help_aggregate" to 0 to see all help / error messages
done (   0.3 sec)
Diagonalizing the Hamiltonian                      ... done (   0.5 sec)
Back transforming the eigenvectors                 ... done (   0.3 sec)
Now organizing SCF variables                       ... done
                      ------------------
                      INITIAL GUESS DONE (   4.8 sec)
                      ------------------
             **** ENERGY FILE WAS UPDATED (c60malonicester_SP.en.tmp) ****
Finished Guess after   6.8 sec
Maximum memory used throughout the entire GUESS-calculation: 398.8 MB
--------------------------------------------------------------------------
WARNING: There was an error initializing an OpenFabrics device.

  Local host:   ga01
  Local device: mlx5_0
--------------------------------------------------------------------------


           ************************************************************
           *        Program running with 28 parallel MPI-processes    *
           *              working on a common directory               *
           ************************************************************

-------------------------------------------------------------------------------------------
                                      ORCA LEAN-SCF
                              memory conserving SCF solver
-------------------------------------------------------------------------------------------

----------------------------------------D-I-I-S--------------------------------------------
Iteration    Energy (Eh)           Delta-E    RMSDP     MaxDP     DIISErr   Damp  Time(sec)
-------------------------------------------------------------------------------------------
               ***  Starting incremental Fock matrix formation  ***
[ga01:3779265] 27 more processes have sent help message help-mpi-btl-openib.txt / error in device init
[ga01:3779265] Set MCA parameter "orte_base_help_aggregate" to 0 to see all help / error messages
    1    -2859.0486129029541189     0.00e+00  1.02e-03  1.13e-01  2.58e-01  0.700  69.0
    2    -2859.4029871642505896    -3.54e-01  8.52e-04  8.70e-02  1.18e-01  0.700  32.1
                               ***Turning on AO-DIIS***
    3    -2859.5791043166045711    -1.76e-01  6.56e-04  6.40e-02  5.33e-02  0.700  30.5
    4    -2859.6904166490403441    -1.11e-01  1.50e-03  1.38e-01  3.20e-02  0.000  29.5
    5    -2859.9390182546667347    -2.49e-01  1.80e-04  1.72e-02  4.63e-03  0.000  31.5
                              *** Initializing SOSCF ***
---------------------------------------S-O-S-C-F--------------------------------------
Iteration    Energy (Eh)           Delta-E    RMSDP     MaxDP     MaxGrad    Time(sec)
--------------------------------------------------------------------------------------
    6    -2859.9401913606216112    -1.17e-03  5.83e-05  6.34e-03  2.39e-03    28.6
               *** Restarting incremental Fock matrix formation ***
    7    -2859.9403842417013948    -1.93e-04  5.16e-04  3.99e-02  1.07e-03    67.9
    8    -2859.9405116380057734    -1.27e-04  3.20e-04  2.48e-02  8.52e-04    52.6
    9    -2859.9405710266291862    -5.94e-05  2.73e-04  2.17e-02  2.98e-04    51.2
   10    -2859.9405790972250543    -8.07e-06  7.26e-05  5.66e-03  6.49e-05    49.8
   11    -2859.9405798460047663    -7.49e-07  4.75e-05  3.87e-03  4.72e-05    44.4
   12    -2859.9405802567980572    -4.11e-07  1.10e-05  1.02e-03  1.42e-05    42.5
   13    -2859.9405802418368694     1.50e-08  6.40e-06  4.83e-04  1.03e-05    35.8
   14    -2859.9405802892088104    -4.74e-08  6.97e-06  1.20e-03  4.65e-06    33.8
   15    -2859.9405803662903054    -7.71e-08  4.82e-06  7.78e-04  2.88e-06    31.8
   16    -2859.9405805153910478    -1.49e-07  4.77e-06  7.90e-04  8.53e-07    30.6
                  *** Gradient check signals convergence ***

               *****************************************************
               *                     SUCCESS                       *
               *           SCF CONVERGED AFTER  16 CYCLES          *
               *****************************************************

Recomputing exchange energy using gridx3       ... done (  127.934 sec)
Old exchange energy                            :   -122.811023959 Eh
New exchange energy                            :   -122.811070607 Eh
Exchange energy change after final integration :     -0.000046648 Eh
Total energy after final integration           :  -2859.940627163 Eh
             **** ENERGY FILE WAS UPDATED (c60malonicester_SP.en.tmp) ****

----------------
TOTAL SCF ENERGY
----------------

Total Energy       :      -2859.94062716323378 Eh          -77822.94091 eV

Components:
Nuclear Repulsion  :      11324.96471967081197 Eh          308167.95698 eV
Electronic Energy  :     -14184.90530018620302 Eh         -385990.89662 eV
One Electron Energy:     -26445.84202029349763 Eh         -719627.94655 eV
Two Electron Energy:      12260.93672010729460 Eh          333637.04993 eV

Virial components:
Potential Energy   :      -5706.54721213766970 Eh         -155283.04408 eV
Kinetic Energy     :       2846.60658497443637 Eh           77460.10317 eV
Virial Ratio       :          2.00468418862627

DFT components:
N(Alpha)           :      221.999612175763 electrons
N(Beta)            :      221.999612175763 electrons
N(Total)           :      443.999224351526 electrons
E(XC)              :     -279.177525599511 Eh       

---------------
SCF CONVERGENCE
---------------

  Last Energy change         ...    1.4910e-07  Tolerance :   1.0000e-08
  Last MAX-Density change    ...    7.8958e-04  Tolerance :   1.0000e-07
  Last RMS-Density change    ...    4.7671e-06  Tolerance :   5.0000e-09
  Last DIIS Error            ...    2.3919e-03  Tolerance :   5.0000e-07
  Last Orbital Gradient      ...    8.5257e-07  Tolerance :   1.0000e-05
  Last Orbital Rotation      ...    1.3093e-05  Tolerance :   1.0000e-05


----------------
ORBITAL ENERGIES
----------------

  NO   OCC          E(Eh)            E(eV) 
   0   2.0000     -19.299249      -525.1593 
   1   2.0000     -19.298465      -525.1379 
   2   2.0000     -19.240629      -523.5641 
   3   2.0000     -19.239738      -523.5399 
   4   2.0000     -10.433881      -283.9203 
   5   2.0000     -10.433396      -283.9071 
   6   2.0000     -10.351143      -281.6689 
   7   2.0000     -10.350657      -281.6557 
   8   2.0000     -10.350464      -281.6504 
   9   2.0000     -10.346768      -281.5499 
  10   2.0000     -10.345653      -281.5195 
  11   2.0000     -10.345021      -281.5023 
  12   2.0000     -10.342019      -281.4206 
  13   2.0000     -10.341151      -281.3970 
  14   2.0000     -10.339355      -281.3481 
  15   2.0000     -10.338541      -281.3260 
  16   2.0000     -10.331094      -281.1234 
  17   2.0000     -10.330972      -281.1200 
  18   2.0000     -10.330644      -281.1111 
  19   2.0000     -10.329892      -281.0906 
  20   2.0000     -10.329805      -281.0883 
  21   2.0000     -10.329728      -281.0862 
  22   2.0000     -10.329680      -281.0849 
  23   2.0000     -10.329644      -281.0839 
  24   2.0000     -10.329605      -281.0828 
  25   2.0000     -10.329524      -281.0806 
  26   2.0000     -10.329448      -281.0786 
  27   2.0000     -10.329380      -281.0767 
  28   2.0000     -10.329322      -281.0751 
  29   2.0000     -10.329272      -281.0738 
  30   2.0000     -10.329220      -281.0724 
  31   2.0000     -10.329144      -281.0703 
  32   2.0000     -10.329096      -281.0690 
  33   2.0000     -10.329054      -281.0678 
  34   2.0000     -10.328998      -281.0663 
  35   2.0000     -10.328911      -281.0640 
  36   2.0000     -10.328901      -281.0637 
  37   2.0000     -10.328857      -281.0625 
  38   2.0000     -10.328845      -281.0622 
  39   2.0000     -10.328741      -281.0593 
  40   2.0000     -10.328701      -281.0583 
  41   2.0000     -10.328667      -281.0573 
  42   2.0000     -10.328647      -281.0568 
  43   2.0000     -10.328601      -281.0555 
  44   2.0000     -10.328537      -281.0538 
  45   2.0000     -10.328521      -281.0533 
  46   2.0000     -10.328427      -281.0508 
  47   2.0000     -10.328289      -281.0470 
  48   2.0000     -10.328163      -281.0436 
  49   2.0000     -10.328159      -281.0435 
  50   2.0000     -10.328098      -281.0418 
  51   2.0000     -10.327963      -281.0382 
  52   2.0000     -10.327898      -281.0364 
  53   2.0000     -10.327836      -281.0347 
  54   2.0000     -10.327819      -281.0342 
  55   2.0000     -10.327650      -281.0296 
  56   2.0000     -10.326875      -281.0086 
  57   2.0000     -10.326813      -281.0069 
  58   2.0000     -10.326748      -281.0051 
  59   2.0000     -10.326446      -280.9969 
  60   2.0000     -10.326444      -280.9968 
  61   2.0000     -10.326398      -280.9956 
  62   2.0000     -10.325945      -280.9832 
  63   2.0000     -10.325934      -280.9829 
  64   2.0000     -10.325774      -280.9786 
  65   2.0000     -10.325089      -280.9600 
  66   2.0000     -10.324018      -280.9308 
  67   2.0000     -10.323314      -280.9117 
  68   2.0000     -10.322653      -280.8937 
  69   2.0000     -10.286853      -279.9195 
  70   2.0000     -10.284921      -279.8669 
  71   2.0000      -1.258105       -34.2348 
  72   2.0000      -1.249287       -33.9948 
  73   2.0000      -1.162928       -31.6449 
  74   2.0000      -1.160573       -31.5808 
  75   2.0000      -1.098987       -29.9049 
  76   2.0000      -1.080273       -29.3957 
  77   2.0000      -1.078519       -29.3480 
  78   2.0000      -1.078416       -29.3452 
  79   2.0000      -1.044747       -28.4290 
  80   2.0000      -1.042537       -28.3689 
  81   2.0000      -1.040455       -28.3122 
  82   2.0000      -1.039904       -28.2972 
  83   2.0000      -1.037335       -28.2273 
  84   2.0000      -1.005775       -27.3685 
  85   2.0000      -0.999156       -27.1884 
  86   2.0000      -0.997867       -27.1534 
  87   2.0000      -0.973307       -26.4850 
  88   2.0000      -0.972762       -26.4702 
  89   2.0000      -0.966733       -26.3061 
  90   2.0000      -0.966439       -26.2981 
  91   2.0000      -0.943835       -25.6831 
  92   2.0000      -0.921413       -25.0729 
  93   2.0000      -0.913907       -24.8687 
  94   2.0000      -0.913229       -24.8502 
  95   2.0000      -0.911608       -24.8061 
  96   2.0000      -0.911170       -24.7942 
  97   2.0000      -0.906431       -24.6652 
  98   2.0000      -0.901284       -24.5252 
  99   2.0000      -0.899708       -24.4823 
 100   2.0000      -0.896856       -24.4047 
 101   2.0000      -0.896087       -24.3838 
 102   2.0000      -0.866615       -23.5818 
 103   2.0000      -0.847657       -23.0659 
 104   2.0000      -0.839159       -22.8347 
 105   2.0000      -0.836816       -22.7709 
 106   2.0000      -0.835694       -22.7404 
 107   2.0000      -0.833089       -22.6695 
 108   2.0000      -0.823729       -22.4148 
 109   2.0000      -0.821146       -22.3445 
 110   2.0000      -0.814754       -22.1706 
 111   2.0000      -0.793827       -21.6011 
 112   2.0000      -0.784612       -21.3504 
 113   2.0000      -0.782801       -21.3011 
 114   2.0000      -0.776298       -21.1242 
 115   2.0000      -0.760846       -20.7037 
 116   2.0000      -0.753076       -20.4922 
 117   2.0000      -0.742530       -20.2053 
 118   2.0000      -0.740225       -20.1426 
 119   2.0000      -0.739566       -20.1246 
 120   2.0000      -0.738560       -20.0972 
 121   2.0000      -0.737135       -20.0585 
 122   2.0000      -0.732963       -19.9449 
 123   2.0000      -0.724004       -19.7011 
 124   2.0000      -0.713460       -19.4142 
 125   2.0000      -0.694874       -18.9085 
 126   2.0000      -0.686598       -18.6833 
 127   2.0000      -0.677247       -18.4288 
 128   2.0000      -0.670089       -18.2340 
 129   2.0000      -0.668070       -18.1791 
 130   2.0000      -0.664449       -18.0806 
 131   2.0000      -0.655446       -17.8356 
 132   2.0000      -0.650931       -17.7127 
 133   2.0000      -0.645397       -17.5621 
 134   2.0000      -0.643109       -17.4999 
 135   2.0000      -0.639865       -17.4116 
 136   2.0000      -0.638359       -17.3706 
 137   2.0000      -0.627040       -17.0626 
 138   2.0000      -0.625006       -17.0073 
 139   2.0000      -0.620770       -16.8920 
 140   2.0000      -0.618488       -16.8299 
 141   2.0000      -0.610666       -16.6171 
 142   2.0000      -0.606212       -16.4959 
 143   2.0000      -0.601242       -16.3606 
 144   2.0000      -0.600439       -16.3388 
 145   2.0000      -0.597353       -16.2548 
 146   2.0000      -0.594128       -16.1670 
 147   2.0000      -0.590861       -16.0782 
 148   2.0000      -0.581592       -15.8259 
 149   2.0000      -0.578004       -15.7283 
 150   2.0000      -0.575968       -15.6729 
 151   2.0000      -0.574892       -15.6436 
 152   2.0000      -0.571393       -15.5484 
 153   2.0000      -0.570727       -15.5303 
 154   2.0000      -0.567505       -15.4426 
 155   2.0000      -0.566140       -15.4055 
 156   2.0000      -0.556070       -15.1314 
 157   2.0000      -0.555098       -15.1050 
 158   2.0000      -0.552790       -15.0422 
 159   2.0000      -0.548869       -14.9355 
 160   2.0000      -0.547710       -14.9039 
 161   2.0000      -0.546181       -14.8624 
 162   2.0000      -0.540434       -14.7060 
 163   2.0000      -0.537514       -14.6265 
 164   2.0000      -0.535055       -14.5596 
 165   2.0000      -0.534418       -14.5422 
 166   2.0000      -0.531835       -14.4720 
 167   2.0000      -0.529796       -14.4165 
 168   2.0000      -0.525957       -14.3120 
 169   2.0000      -0.525711       -14.3053 
 170   2.0000      -0.524313       -14.2673 
 171   2.0000      -0.523135       -14.2352 
 172   2.0000      -0.520536       -14.1645 
 173   2.0000      -0.520063       -14.1516 
 174   2.0000      -0.515450       -14.0261 
 175   2.0000      -0.512867       -13.9558 
 176   2.0000      -0.509333       -13.8596 
 177   2.0000      -0.506601       -13.7853 
 178   2.0000      -0.504468       -13.7273 
 179   2.0000      -0.501924       -13.6580 
 180   2.0000      -0.500998       -13.6329 
 181   2.0000      -0.498259       -13.5583 
 182   2.0000      -0.492052       -13.3894 
 183   2.0000      -0.483102       -13.1459 
 184   2.0000      -0.471472       -12.8294 
 185   2.0000      -0.470554       -12.8044 
 186   2.0000      -0.465169       -12.6579 
 187   2.0000      -0.463709       -12.6182 
 188   2.0000      -0.460416       -12.5286 
 189   2.0000      -0.459648       -12.5077 
 190   2.0000      -0.455912       -12.4060 
 191   2.0000      -0.455349       -12.3907 
 192   2.0000      -0.454469       -12.3667 
 193   2.0000      -0.452012       -12.2999 
 194   2.0000      -0.449745       -12.2382 
 195   2.0000      -0.447243       -12.1701 
 196   2.0000      -0.446740       -12.1564 
 197   2.0000      -0.444829       -12.1044 
 198   2.0000      -0.442688       -12.0462 
 199   2.0000      -0.442587       -12.0434 
 200   2.0000      -0.441776       -12.0213 
 201   2.0000      -0.440409       -11.9841 
 202   2.0000      -0.435095       -11.8395 
 203   2.0000      -0.431644       -11.7456 
 204   2.0000      -0.421044       -11.4572 
 205   2.0000      -0.418961       -11.4005 
 206   2.0000      -0.408662       -11.1203 
 207   2.0000      -0.387489       -10.5441 
 208   2.0000      -0.361785        -9.8447 
 209   2.0000      -0.360168        -9.8007 
 210   2.0000      -0.359879        -9.7928 
 211   2.0000      -0.358878        -9.7656 
 212   2.0000      -0.354716        -9.6523 
 213   2.0000      -0.353309        -9.6140 
 214   2.0000      -0.352914        -9.6033 
 215   2.0000      -0.350268        -9.5313 
 216   2.0000      -0.346417        -9.4265 
 217   2.0000      -0.298297        -8.1171 
 218   2.0000      -0.298111        -8.1120 
 219   2.0000      -0.297908        -8.1065 
 220   2.0000      -0.297234        -8.0881 
 221   2.0000      -0.296832        -8.0772 
 222   0.0000      -0.070453        -1.9171 
 223   0.0000      -0.069024        -1.8782 
 224   0.0000      -0.068473        -1.8632 
 225   0.0000      -0.019160        -0.5214 
 226   0.0000      -0.017409        -0.4737 
 227   0.0000      -0.014766        -0.4018 
 228   0.0000       0.013179         0.3586 
 229   0.0000       0.024720         0.6727 
 230   0.0000       0.027284         0.7424 
 231   0.0000       0.027408         0.7458 
 232   0.0000       0.028186         0.7670 
*Only the first 10 virtual orbitals were printed.

                    ********************************
                    * MULLIKEN POPULATION ANALYSIS *
                    ********************************

-----------------------
MULLIKEN ATOMIC CHARGES
-----------------------
   0 C :   -0.008721
   1 C :   -0.020308
   2 C :    0.002891
   3 C :    0.004122
   4 C :   -0.003913
   5 C :   -0.041186
   6 C :    0.055831
   7 C :   -0.015454
   8 C :   -0.009293
   9 C :    0.011606
  10 C :   -0.001689
  11 C :    0.040277
  12 C :    0.126405
  13 C :   -0.067501
  14 C :   -0.151766
  15 C :    0.007252
  16 C :    0.001541
  17 C :    0.005417
  18 C :   -0.021553
[...]
 22 C      6.1361     6.0000    -0.1361     3.8941     3.8941    -0.0000
 23 C      6.1574     6.0000    -0.1574     4.0580     4.0580     0.0000
 24 C      5.9907     6.0000     0.0093     4.0250     4.0250    -0.0000
 25 C      5.9980     6.0000     0.0020     4.0196     4.0196     0.0000
 26 C      6.0063     6.0000    -0.0063     4.0275     4.0275     0.0000
 27 C      5.9862     6.0000     0.0138     4.0053     4.0053     0.0000
 28 C      5.9981     6.0000     0.0019     4.0133     4.0133    -0.0000
 29 C      5.9701     6.0000     0.0299     3.9927     3.9927    -0.0000
 30 C      5.9632     6.0000     0.0368     3.9972     3.9972    -0.0000
 31 C      5.8651     6.0000     0.1349     3.9263     3.9263     0.0000
 32 C      5.7212     6.0000     0.2788     3.8908     3.8908    -0.0000
 33 C      5.8994     6.0000     0.1006     3.8751     3.8751    -0.0000
 34 C      6.0991     6.0000    -0.0991     4.0984     4.0984     0.0000
 35 C      6.0017     6.0000    -0.0017     4.0163     4.0163     0.0000
 36 C      6.0029     6.0000    -0.0029     4.0272     4.0272     0.0000
 37 C      6.0111     6.0000    -0.0111     4.0360     4.0360     0.0000
 38 C      6.0106     6.0000    -0.0106     4.0334     4.0334     0.0000
 39 C      6.0631     6.0000    -0.0631     4.0872     4.0872     0.0000
 40 C      5.9520     6.0000     0.0480     3.9854     3.9854    -0.0000
 41 C      5.8922     6.0000     0.1078     3.8992     3.8992     0.0000
 42 C      5.7461     6.0000     0.2539     3.9174     3.9174    -0.0000
 43 C      6.0903     6.0000    -0.0903     4.0357     4.0357    -0.0000
 44 C      5.9658     6.0000     0.0342     3.9959     3.9959     0.0000
 45 C      5.9983     6.0000     0.0017     4.0271     4.0271     0.0000
 46 C      5.9951     6.0000     0.0049     4.0140     4.0140     0.0000
 47 C      6.0084     6.0000    -0.0084     4.0223     4.0223     0.0000
 48 C      5.9553     6.0000     0.0447     3.9713     3.9713     0.0000
 49 C      6.1592     6.0000    -0.1592     4.1135     4.1135    -0.0000
 50 C      6.1602     6.0000    -0.1602     4.0260     4.0260     0.0000
 51 C      6.0906     6.0000    -0.0906     4.0744     4.0744    -0.0000
 52 C      6.0166     6.0000    -0.0166     4.0417     4.0417     0.0000
 53 C      6.0065     6.0000    -0.0065     4.0325     4.0325     0.0000
 54 C      6.0148     6.0000    -0.0148     4.0320     4.0320    -0.0000
 55 C      6.0381     6.0000    -0.0381     4.0808     4.0808    -0.0000
 56 C      5.8779     6.0000     0.1221     3.8926     3.8926     0.0000
 57 C      6.1484     6.0000    -0.1484     4.1385     4.1385    -0.0000
 58 C      5.9428     6.0000     0.0572     4.0336     4.0336    -0.0000
 59 C      6.0039     6.0000    -0.0039     4.0216     4.0216    -0.0000
 60 H      0.9129     1.0000     0.0871     1.0064     1.0064    -0.0000
 61 C      6.2456     6.0000    -0.2456     3.9082     3.9082    -0.0000
 62 H      0.9078     1.0000     0.0922     1.0105     1.0105     0.0000
 63 H      0.8929     1.0000     0.1071     0.9929     0.9929    -0.0000
 64 C      6.0024     6.0000    -0.0024     3.8768     3.8768    -0.0000
 65 O      8.2554     8.0000    -0.2554     2.1554     2.1554    -0.0000
 66 H      0.8998     1.0000     0.1002     1.0100     1.0100    -0.0000
 67 C      5.8034     6.0000     0.1966     4.4117     4.4117    -0.0000
 68 C      5.4550     6.0000     0.5450     3.3460     3.3460    -0.0000
 69 O      8.3064     8.0000    -0.3064     2.1955     2.1955    -0.0000
 70 H      0.9057     1.0000     0.0943     1.0097     1.0097     0.0000
 71 C      5.8279     6.0000     0.1721     4.3342     4.3342    -0.0000
 72 H      0.9128     1.0000     0.0872     1.0039     1.0039     0.0000
 73 O      8.2568     8.0000    -0.2568     2.1438     2.1438    -0.0000
 74 H      0.9030     1.0000     0.0970     0.9972     0.9972     0.0000
 75 O      8.3014     8.0000    -0.3014     2.2010     2.2010    -0.0000
 76 C      5.9938     6.0000     0.0062     3.8763     3.8763    -0.0000
 77 C      6.2285     6.0000    -0.2285     3.9637     3.9637     0.0000
 78 H      0.9179     1.0000     0.0821     1.0074     1.0074     0.0000
 79 H      0.9141     1.0000     0.0859     1.0035     1.0035    -0.0000
 80 H      0.9062     1.0000     0.0938     0.9981     0.9981    -0.0000

  Mayer bond orders larger than 0.100000
B(  0-C ,  1-C ) :   1.1829 B(  0-C ,  3-C ) :   1.4420 B(  0-C ,  4-C ) :   1.1715 
B(  1-C ,  2-C ) :   1.4414 B(  1-C ,  5-C ) :   1.1773 B(  2-C ,  6-C ) :   1.1440 
B(  2-C ,  7-C ) :   1.1878 B(  3-C ,  8-C ) :   1.1772 B(  3-C ,  9-C ) :   1.1791 
B(  4-C , 10-C ) :   1.4444 B(  4-C , 11-C ) :   1.1756 B(  5-C , 11-C ) :   1.1700 
B(  5-C , 12-C ) :   1.4465 B(  6-C , 13-C ) :   1.1925 B(  6-C , 14-C ) :   1.4713 
B(  7-C ,  9-C ) :   1.4471 B(  7-C , 15-C ) :   1.1715 B(  8-C , 16-C ) :   1.4472 
B(  8-C , 17-C ) :   1.1707 B(  9-C , 18-C ) :   1.1619 B( 10-C , 16-C ) :   1.1747 
B( 10-C , 19-C ) :   1.1767 B( 11-C , 20-C ) :   1.4440 B( 12-C , 14-C ) :   1.1802 
B( 12-C , 21-C ) :   1.1585 B( 13-C , 15-C ) :   1.1892 B( 13-C , 22-C ) :   1.4461 
B( 14-C , 23-C ) :   1.2132 B( 15-C , 24-C ) :   1.4473 B( 16-C , 25-C ) :   1.1741 
B( 17-C , 18-C ) :   1.1841 B( 17-C , 26-C ) :   1.4421 B( 18-C , 27-C ) :   1.4505 
B( 19-C , 28-C ) :   1.1751 B( 19-C , 29-C ) :   1.4440 B( 20-C , 29-C ) :   1.1782 
B( 20-C , 30-C ) :   1.1732 B( 21-C , 30-C ) :   1.4548 B( 21-C , 31-C ) :   1.1925 
B( 22-C , 23-C ) :   0.1431 B( 22-C , 32-C ) :   1.0331 B( 22-C , 33-C ) :   1.1491 
B( 23-C , 31-C ) :   1.0844 B( 23-C , 32-C ) :   1.4152 B( 24-C , 27-C ) :   1.1587 
B( 24-C , 34-C ) :   1.1913 B( 25-C , 28-C ) :   1.1753 B( 25-C , 35-C ) :   1.4457 
B( 26-C , 35-C ) :   1.1705 B( 26-C , 36-C ) :   1.1848 B( 27-C , 37-C ) :   1.1883 
B( 28-C , 38-C ) :   1.4461 B( 29-C , 39-C ) :   1.1777 B( 30-C , 40-C ) :   1.1749 
B( 31-C , 41-C ) :   1.5051 B( 32-C , 42-C ) :   0.4550 B( 32-C , 68-C ) :   0.9211 
B( 33-C , 34-C ) :   1.4802 B( 33-C , 43-C ) :   1.1606 B( 34-C , 44-C ) :   1.1752 
B( 35-C , 45-C ) :   1.1769 B( 36-C , 37-C ) :   1.4475 B( 36-C , 46-C ) :   1.1636 
B( 37-C , 44-C ) :   1.1606 B( 38-C , 47-C ) :   1.1750 B( 38-C , 48-C ) :   1.1716 
B( 39-C , 40-C ) :   1.1718 B( 39-C , 48-C ) :   1.4432 B( 40-C , 49-C ) :   1.4534 
B( 41-C , 49-C ) :   1.1744 B( 41-C , 50-C ) :   1.1290 B( 42-C , 43-C ) :   1.0776 
B( 42-C , 50-C ) :   1.3612 B( 42-C , 68-C ) :   0.9271 B( 43-C , 50-C ) :   0.1501 
B( 43-C , 51-C ) :   1.4753 B( 44-C , 52-C ) :   1.4553 B( 45-C , 46-C ) :   1.1794 
B( 45-C , 47-C ) :   1.4433 B( 46-C , 53-C ) :   1.4452 B( 47-C , 54-C ) :   1.1799 
B( 48-C , 55-C ) :   1.1721 B( 49-C , 56-C ) :   1.1654 B( 50-C , 57-C ) :   1.2101 
B( 51-C , 52-C ) :   1.1841 B( 51-C , 58-C ) :   1.1845 B( 52-C , 53-C ) :   1.1748 
B( 53-C , 59-C ) :   1.1853 B( 54-C , 55-C ) :   1.1779 B( 54-C , 59-C ) :   1.4403 
B( 55-C , 56-C ) :   1.4428 B( 56-C , 57-C ) :   1.1819 B( 57-C , 58-C ) :   1.4786 
B( 58-C , 59-C ) :   1.1452 B( 60-H , 61-C ) :   0.9865 B( 61-C , 62-H ) :   0.9842 
B( 61-C , 64-C ) :   0.9527 B( 61-C , 66-H ) :   0.9855 B( 63-H , 64-C ) :   0.9823 
B( 64-C , 65-O ) :   0.8826 B( 64-C , 70-H ) :   0.9964 B( 65-O , 67-C ) :   1.2189 
B( 65-O , 68-C ) :  -0.1102 B( 67-C , 68-C ) :   0.8741 B( 67-C , 69-O ) :   2.0642 
B( 68-C , 71-C ) :   0.8406 B( 71-C , 73-O ) :   1.1999 B( 71-C , 75-O ) :   2.0680 
B( 72-H , 77-C ) :   0.9861 B( 73-O , 76-C ) :   0.8653 B( 74-H , 76-C ) :   0.9815 
B( 76-C , 77-C ) :   0.9802 B( 76-C , 80-H ) :   0.9830 B( 77-C , 78-H ) :   0.9899 
B( 77-C , 79-H ) :   0.9863 

-------
TIMINGS
-------

Total SCF time: 0 days 0 hours 13 min 14 sec 

Total time                  ....     794.864 sec
Sum of individual times     ....     794.153 sec  ( 99.9%)

SCF preparation             ....       2.037 sec  (  0.3%)
Fock matrix formation       ....     756.822 sec  ( 95.2%)
  Startup                   ....       1.593 sec  (  0.2% of F)
  Split-RI-J                ....      52.845 sec  (  7.0% of F)
  Chain of spheres X        ....     659.937 sec  ( 87.2% of F)
  XC integration            ....      37.081 sec  (  4.9% of F)
    XC Preparation          ....       0.000 sec  (  0.0% of XC)
    Basis function eval.    ....       7.689 sec  ( 20.7% of XC)
    Density eval.           ....      13.536 sec  ( 36.5% of XC)
    XC-Functional eval.     ....       0.296 sec  (  0.8% of XC)
    XC-Potential eval.      ....      10.028 sec  ( 27.0% of XC)
Diagonalization             ....       0.000 sec  (  0.0%)
Density matrix formation    ....       6.351 sec  (  0.8%)
Total Energy calculation    ....       1.845 sec  (  0.2%)
Population analysis         ....       1.140 sec  (  0.1%)
Orbital Transformation      ....       2.893 sec  (  0.4%)
Orbital Orthonormalization  ....       0.000 sec  (  0.0%)
DIIS solution               ....      12.285 sec  (  1.5%)
SOSCF solution              ....      10.779 sec  (  1.4%)
Finished LeanSCF after 795.5 sec

Maximum memory used throughout the entire LEANSCF-calculation: 705.8 MB


-------------------------------------------------------------------------------
                          DFT DISPERSION CORRECTION                            
                                                                               
                              DFTD3 V3.1  Rev 1                                
                              USING zero damping                               
-------------------------------------------------------------------------------
The omegaB97X-D3 functional is recognized. Fit by Chai et al.
Active option DFTDOPT                   ...         3   

molecular C6(AA) [au] = 123898.097024 


            DFT-D V3
 parameters
 s6 scaling factor         :     1.0000 
 rs6 scaling factor        :     1.2810 
 s8 scaling factor         :     1.0000 
 rs8 scaling factor        :     1.0940 
 Damping factor alpha6     :    14.0000 
 Damping factor alpha8     :    16.0000 
 ad hoc parameters k1-k3   :    16.0000     1.3333    -4.0000 

 Edisp/kcal,au: -48.390911979488  -0.077115818673 
 E6   /kcal   : -24.275305652 
 E8   /kcal   : -24.115606327 
 % E8         :  49.834990375 

-------------------------   ----------------
Dispersion correction           -0.077115819
-------------------------   ----------------


-------------------------   --------------------
FINAL SINGLE POINT ENERGY     -2860.017742981907
-------------------------   --------------------

--------------------------------------------------------------------------
WARNING: There was an error initializing an OpenFabrics device.

  Local host:   ga01
  Local device: mlx5_0
--------------------------------------------------------------------------


           ************************************************************
           *        Program running with 28 parallel MPI-processes    *
           *              working on a common directory               *
           ************************************************************

------------------------------------------------------------------------------
                              ORCA PROPERTY CALCULATIONS
------------------------------------------------------------------------------

GBWName                                 ... c60malonicester_SP.gbw
Number of atoms                         ...     81
Number of basis functions               ...   2341
Max core memory                         ...   5000 MB

Electric properties:
Dipole moment                           ... YES
Quadrupole moment                       ...  NO
Static polarizability (Dipole/Dipole)   ...  NO
Static polarizability (Dipole/Quad.)    ...  NO
Static polarizability (Quad./Quad.)     ...  NO
Static polarizability (Velocity)        ...  NO

Atomic electric properties:
Dipole moment                           ...  NO
Quadrupole moment                       ...  NO
Static polarizability                   ...  NO

Choice of electric origin               ... Center of mass
Position of electric origin             ...    -0.141332     1.134036     0.115190

General magnetic properties:
Magnetizability                         ...  NO

EPR properties:
g-Tensor (aka g-matrix)                 ...  NO
Zero-Field splitting spin-orbit         ...  NO
Zero-field splitting spin-spin          ...  NO
Hyperfine couplings                     ...  NO (   0 nuclei)
Quadrupole couplings                    ...  NO (   0 nuclei)
Contact density                         ...  NO (   0 nuclei)

NMR properties:
Chemical shifts                         ...  NO (   0 nuclei)
Spin-rotation constants                 ...  NO (   0 nuclei)
Spin-spin couplings                     ...  NO (   0 nuclei,    0 pairs)

Choice of magnetic origin               ... GIAO
Position of magnetic origin             ...     0.000000     0.000000     0.000000

Properties with geometric perturbations:
SCF Hessian                             ...  NO
IR spectrum                             ...  NO
VCD spectrum                            ...  NO
X-ray spectroscopy properties:
SCF XES/XAS/RIXS spectra                ...  NO


-------------
DIPOLE MOMENT
-------------

Method             : SCF
Type of density    : Electron Density
Multiplicity       :   1
Irrep              :   0
Energy             : -2859.9406271632337848 Eh
Relativity type    : 
Basis              : AO
                                X                 Y                 Z
Electronic contribution:     10.961317802     -56.217937379      -6.823020029
Nuclear contribution   :    -11.174434484      57.627963942       7.004473160
                        -----------------------------------------
Total Dipole Moment    :     -0.213116682       1.410026563       0.181453130
                        -----------------------------------------
Magnitude (a.u.)       :      1.437539171
Magnitude (Debye)      :      3.653934189



--------------------
Rotational spectrum 
--------------------
 
Rotational constants in cm-1:             0.002428             0.001443             0.001373 
Rotational constants in MHz :            72.796164            43.274744            41.174552 

Dipole components along the rotational axes: 
x,y,z [a.u.] :    -1.435433    -0.077377     0.008040 
x,y,z [Debye]:    -3.648580    -0.196677     0.020436 

 

Dipole moment calculation done in   0.2 sec 

Maximum memory used throughout the entire PROP-calculation: 436.0 MB
[ga01:3781056] 27 more processes have sent help message help-mpi-btl-openib.txt / error in device init
[ga01:3781056] Set MCA parameter "orte_base_help_aggregate" to 0 to see all help / error messages
--------------------------------------------------------------------------
WARNING: There was an error initializing an OpenFabrics device.

  Local host:   ga01
  Local device: mlx5_0
--------------------------------------------------------------------------
[ga01:3781173] 27 more processes have sent help message help-mpi-btl-openib.txt / error in device init
[ga01:3781173] Set MCA parameter "orte_base_help_aggregate" to 0 to see all help / error messages

--------------------------------
SUGGESTED CITATIONS FOR THIS RUN
--------------------------------

Below you find a list of papers that are relevant to this ORCA run
We neither can nor want to force you to cite these papers, but we appreciate if you do
You receive ORCA, which is the product of decades of hard work by many enthusiastic individuals, for free
The only thing we kindly ask in return is that you cite our papers,
We deeply appreciate it, if you show your appreciation for ORCA by not just citing the generic ORCA reference.

Please note that relegating all ORCA citations to the supporting information does *not* help us.
SI sections are not indexed - citations you put there will not count into any citation statistics
But we need these citations in order to attract the funding resources that allow us to do what we are doing

Therefore, if you are a happy ORCA user, please consider citing a few of the papers listed below in the main body of your paper

In addition to the list printed below, the program has created the file c60malonicester_SP.bibtex that contains the list in bibtex format
You can import this file easily into all common literature databanks and citation aid programs


List of essential papers. We consider these as the minimum necessary citations

  1. Neese,F.
     Software update: the ORCA program system, version 5.0
     WIRES Comput. Molec. Sci., 2022 12(1)e1606
     doi.org/10.1002/wcms.1606

List of papers to cite with high priority. The work reported in these papers was absolutely
necessary for this run to complete.
Our perspective: the developers of density functionals and basis sets usually get cited in chemistry papers
Good! But without the algorithms to do something with them, the functionals or basis sets would not do anything.
Hence, in our opinion, the algorithm design and method developments papers are equally worthy of getting cited

  1. Neese,F.
     An improvement of the resolution of the identity approximation for the formation of the Coulomb matrix
     J. Comp. Chem., 2003 24(14)1740-1747
     doi.org/10.1002/jcc.10318
  2. Neese,F.; Wennmohs,F.; Hansen,A.; Becker,U.
     Efficient, approximate and parallel Hartree-Fock and hybrid DFT calculations. A 'chain-of-spheres' algorithm for the Hartree-Fock exchange
     Chem. Phys., 2009 356(1-3)98-109
     doi.org/10.1016/j.chemphys.2008.10.036
  3. Helmich-Paris,B.; de Souza,B.; Neese,F.; Izsák,R.
     An improved chain of spheres for exchange algorithm
     J. Chem. Phys., 2021 155 104109
     doi.org/doi: 10.1063/5.0058766.
  4. Neese,F.
     The SHARK Integral Generation and Digestion System
     J. Comp. Chem., 2022  1-16
     doi.org/10.1002/jcc.26942
  5. Grimme,S.; Antony,J.; Ehrlich,S.; Krieg,H.
     A consistent and accurate ab initio parametrization of density functional dispersion correction (DFT-D) for the 94 elements H-Pu
     J. Chem. Phys., 2010 132 154104
     doi.org/10.1063/1.3382344

List of suggested additional citations. These are papers that are important in the 'surrounding' of 
of this run, or papers that preceded the highly important papers. If you like your results we are grateful for a citation.

  1. Izsak,R.; Neese,F.
     An overlap fitted chain of spheres exchange method
     J. Chem. Phys., 2011 135 144105
     doi.org/10.1063/1.3646921
  2. Izsak,R.; Hansen,A.; Neese,F.
     The resolution of identity and chain of spheres approximations for the LPNO-CCSD singles Fock term
     Molec. Phys., 2012 110 2413-2417
     doi.org/10.1080/00268976.2012.687466
  3. Neese,F.
     The ORCA program system
     WIRES Comput. Molec. Sci., 2012 2(1)73-78
     doi.org/10.1002/wcms.81
  4. Izsak,R.; Neese,F.; Klopper,W.
     Robust fitting techniques in the chain of spheres approximation to the Fock exchange: The role of the complementary space
     J. Chem. Phys., 2013 139 
     doi.org/10.1063/1.4819264
  5. Neese,F.
     Software update: the ORCA program system, version 4.0
     WIRES Comput. Molec. Sci., 2018 8(1)1-6
     doi.org/10.1002/wcms.1327
  6. Neese,F.; Wennmohs,F.; Becker,U.; Riplinger,C.
     The ORCA quantum chemistry program package
     J. Chem. Phys., 2020 152 Art. No. L224108
     doi.org/10.1063/5.0004608

List of optional additional citations

  1. Neese,F.
     Approximate second-order SCF convergence for spin unrestricted wavefunctions
     Chem. Phys. Lett., 2000 325(1-3)93-98
     doi.org/10.1016/s0009-2614(00)00662-x

Timings for individual modules:

Sum of individual times          ...      820.450 sec (=  13.674 min)
Startup calculation              ...       14.742 sec (=   0.246 min)   1.8 %
SCF iterations                   ...      803.534 sec (=  13.392 min)  97.9 %
Property calculations            ...        2.173 sec (=   0.036 min)   0.3 %
                             ****ORCA TERMINATED NORMALLY****
TOTAL RUN TIME: 0 days 0 hours 13 minutes 41 seconds 722 msec
