--------------------------------------------------------------------------
By default, for Open MPI 4.0 and later, infiniband ports on a device
are not used by default.  The intent is to use UCX for these devices.
You can override this policy by setting the btl_openib_allow_ib MCA parameter
to true.

  Local host:              psid01
  Local adapter:           mlx5_0
  Local port:              1

--------------------------------------------------------------------------
--------------------------------------------------------------------------
WARNING: There was an error initializing an OpenFabrics device.

  Local host:   psid01
  Local device: mlx5_0
--------------------------------------------------------------------------

     Program PWSCF v.7.3.1 starts on 10Feb2025 at  2:45: 3 

     This program is part of the open-source Quantum ESPRESSO suite
     for quantum simulation of materials; please cite
         "P. Giannozzi et al., J. Phys.:Condens. Matter 21 395502 (2009);
         "P. Giannozzi et al., J. Phys.:Condens. Matter 29 465901 (2017);
         "P. Giannozzi et al., J. Chem. Phys. 152 154105 (2020);
          URL http://www.quantum-espresso.org", 
     in publications or presentations arising from this work. More details at
     http://www.quantum-espresso.org/quote

     Parallel version (MPI), running on     4 processors

     MPI processes distributed on     1 nodes
     98830 MiB available memory on the printing compute node when the environment starts

     Waiting for input...
     Reading input from standard input
Warning: card &CELL ignored
Warning: card / ignored

     Current dimensions of program PWSCF are:
     Max number of different atomic species (ntypx) = 10
     Max number of k-points (npk) =  40000
     Max angular momentum in pseudopotentials (lmaxx) =  4
     file O.pbe-n-kjpaw_psl.0.1.UPF: wavefunction(s)  2P renormalized

     gamma-point specific algorithms are used

     R & G space division:  proc/nbgrp/npool/nimage =       4
     Subspace diagonalization in iterative solution of the eigenvalue problem:
     a serial algorithm will be used


     Parallelization info
     --------------------
     sticks:   dense  smooth     PW     G-vecs:    dense   smooth      PW
     Min       17766    8886   2223              3561534  1259314  157473
     Max       17767    8888   2226              3561539  1259320  157476
     Sum       71065   35549   8897             14246141  5037273  629899

     Using Slab Decomposition



     bravais-lattice index     =            1
     lattice parameter (alat)  =      47.2432  a.u.
     unit-cell volume          =  105442.7265 (a.u.)^3
     number of atoms/cell      =           19
     number of atomic types    =            3
     number of electrons       =        66.00
     number of Kohn-Sham states=           33
     kinetic-energy cutoff     =      50.0000  Ry
     charge density cutoff     =     400.0000  Ry
     scf convergence threshold =      1.0E-06
     mixing beta               =       0.7000
     number of iterations used =            8  plain     mixing
     energy convergence thresh.=      1.0E-04
     force convergence thresh. =      1.0E-03
     Exchange-correlation= SLA  PW   PBX  PBC
                           (   1   4   3   4   0   0   0)
     nstep                     =          100


     celldm(1)=  47.243153  celldm(2)=   0.000000  celldm(3)=   0.000000
     celldm(4)=   0.000000  celldm(5)=   0.000000  celldm(6)=   0.000000

     crystal axes: (cart. coord. in units of alat)
               a(1) = (   1.000000   0.000000   0.000000 )  
               a(2) = (   0.000000   1.000000   0.000000 )  
               a(3) = (   0.000000   0.000000   1.000000 )  

     reciprocal axes: (cart. coord. in units 2 pi/alat)
               b(1) = (  1.000000  0.000000  0.000000 )  
               b(2) = (  0.000000  1.000000  0.000000 )  
               b(3) = (  0.000000  0.000000  1.000000 )  


     PseudoPot. # 1 for Zn read from file:
     /home/ys/qe-7.3.1/pseudo/Standard_solid-state_pseudopotentials_SSSP_1.3.0_PBE_efficiency/Zn_pbe_v1.uspp.F.UPF
     MD5 check sum: df62231357ef9e81f77b2b3087fa5675
     Pseudo is Ultrasoft, Zval = 20.0
     Generated by new atomic code, or converted to UPF format
     Using radial grid of  943 points,  6 beta functions with: 
                l(1) =   0
                l(2) =   0
                l(3) =   1
                l(4) =   1
                l(5) =   2
                l(6) =   2
     Q(r) pseudized with  8 coefficients,  rinner =    1.100   1.100   1.100
                                                       1.100   1.100

     PseudoPot. # 2 for H  read from file:
     /home/ys/qe-7.3.1/pseudo/Standard_solid-state_pseudopotentials_SSSP_1.3.0_PBE_efficiency/H.pbe-rrkjus_psl.1.0.0.UPF
     MD5 check sum: f52b6d4d1c606e5624b1dc7b2218f220
     Pseudo is Ultrasoft, Zval =  1.0
     Generated using "atomic" code by A. Dal Corso  v.5.1
     Using radial grid of  929 points,  2 beta functions with: 
                l(1) =   0
                l(2) =   0
     Q(r) pseudized with 0 coefficients 


     PseudoPot. # 3 for O  read from file:
     /home/ys/qe-7.3.1/pseudo/Standard_solid-state_pseudopotentials_SSSP_1.3.0_PBE_efficiency/O.pbe-n-kjpaw_psl.0.1.UPF
     MD5 check sum: 0234752ac141de4415c5fc33072bef88
     Pseudo is Projector augmented-wave + core cor, Zval =  6.0
     Generated using "atomic" code by A. Dal Corso  v.5.0.99 svn rev. 10869
     Shape of augmentation charge: BESSEL
     Using radial grid of 1095 points,  4 beta functions with: 
                l(1) =   0
                l(2) =   0
                l(3) =   1
                l(4) =   1
     Q(r) pseudized with 0 coefficients 


     atomic species   valence    mass     pseudopotential
     Zn               20.00    65.39000     Zn( 1.00)
     H                 1.00     1.00794     H ( 1.00)
     O                 6.00    15.99940     O ( 1.00)

     No symmetry found



   Cartesian axes

     site n.     atom                  positions (alat units)
         1        Zn     tau(   1) = (   0.1315161   0.1362828   0.1318422  )
         2        H      tau(   2) = (   0.0512928   0.0988716   0.0711091  )
         3        O      tau(   3) = (   0.0565603   0.1300720   0.0934940  )
         4        H      tau(   4) = (   0.0263203   0.1311626   0.1177369  )
         5        H      tau(   5) = (   0.2368830   0.1421330   0.1439130  )
         6        O      tau(   6) = (   0.2072500   0.1414528   0.1689097  )
         7        H      tau(   7) = (   0.2125617   0.1715994   0.1926922  )
         8        H      tau(   8) = (   0.1142987   0.2186662   0.0672182  )
         9        O      tau(   9) = (   0.1362756   0.2140078   0.0988218  )
        10        H      tau(  10) = (   0.1717254   0.2263462   0.0891472  )
        11        H      tau(  11) = (   0.0991790   0.0368572   0.1554818  )
        12        O      tau(  12) = (   0.1216160   0.0632946   0.1728156  )
        13        H      tau(  13) = (   0.1547988   0.0451838   0.1814295  )
        14        H      tau(  14) = (   0.0948606   0.1545051   0.2305988  )
        15        O      tau(  15) = (   0.0909947   0.1723890   0.1964342  )
        16        H      tau(  16) = (   0.0998622   0.2096110   0.2025863  )
        17        H      tau(  17) = (   0.1634496   0.0627466   0.0608597  )
        18        O      tau(  18) = (   0.1719576   0.1000999   0.0668442  )
        19        H      tau(  19) = (   0.1672984   0.1176922   0.0326046  )

     number of k points=     1
                       cart. coord. in units 2pi/alat
        k(    1) = (   0.0000000   0.0000000   0.0000000), wk =   2.0000000

     Dense  grid:  7123071 G-vectors     FFT dimensions: ( 320, 320, 320)

     Smooth grid:  2518637 G-vectors     FFT dimensions: ( 216, 216, 216)

     Estimated max dynamical RAM per process >       7.37 GB

     Estimated total dynamical RAM >      29.48 GB

     Initial potential from superposition of free atoms

     starting charge      67.9997, renormalised to      66.0000
[psid01:123547] 3 more processes have sent help message help-mpi-btl-openib.txt / ib port not selected
[psid01:123547] Set MCA parameter "orte_base_help_aggregate" to 0 to see all help / error messages
[psid01:123547] 3 more processes have sent help message help-mpi-btl-openib.txt / error in device init

     negative rho (up, down):  3.608E-03 0.000E+00
     Starting wfcs are   49 randomized atomic wfcs
     Checking if some PAW data can be deallocated... 

     total cpu time spent up to now is       26.4 secs

     Self-consistent Calculation

     iteration #  1     ecut=    50.00 Ry     beta= 0.70
     Davidson diagonalization with overlap
     ethr =  1.00E-02,  avg # of iterations =  2.0

     negative rho (up, down):  4.197E-03 0.000E+00

     total cpu time spent up to now is       69.9 secs

     total energy              =    -722.19305449 Ry
     estimated scf accuracy    <       6.49265293 Ry

     iteration #  2     ecut=    50.00 Ry     beta= 0.70
     Davidson diagonalization with overlap
     ethr =  9.84E-03,  avg # of iterations =  3.0

     negative rho (up, down):  6.298E-03 0.000E+00

     total cpu time spent up to now is      115.5 secs

     total energy              =    -724.21596817 Ry
     estimated scf accuracy    <       4.16099720 Ry

     iteration #  3     ecut=    50.00 Ry     beta= 0.70
     Davidson diagonalization with overlap
     ethr =  6.30E-03,  avg # of iterations =  2.0

     negative rho (up, down):  5.786E-03 0.000E+00

     total cpu time spent up to now is      157.7 secs

     total energy              =    -724.85557495 Ry
     estimated scf accuracy    <       0.13560552 Ry

     iteration #  4     ecut=    50.00 Ry     beta= 0.70
     Davidson diagonalization with overlap
     ethr =  2.05E-04,  avg # of iterations =  5.0

     negative rho (up, down):  5.968E-03 0.000E+00

     total cpu time spent up to now is      206.6 secs

     total energy              =    -724.95997112 Ry
     estimated scf accuracy    <       0.11493392 Ry

     iteration #  5     ecut=    50.00 Ry     beta= 0.70
     Davidson diagonalization with overlap
     ethr =  1.74E-04,  avg # of iterations =  2.0

     negative rho (up, down):  5.938E-03 0.000E+00

     total cpu time spent up to now is      246.6 secs

     total energy              =    -724.95429046 Ry
     estimated scf accuracy    <       0.03963761 Ry

     iteration #  6     ecut=    50.00 Ry     beta= 0.70
     Davidson diagonalization with overlap
     ethr =  6.01E-05,  avg # of iterations =  2.0

     negative rho (up, down):  5.818E-03 0.000E+00

     total cpu time spent up to now is      287.8 secs

     total energy              =    -724.95831760 Ry
     estimated scf accuracy    <       0.00400593 Ry

     iteration #  7     ecut=    50.00 Ry     beta= 0.70
     Davidson diagonalization with overlap
     ethr =  6.07E-06,  avg # of iterations =  2.0

     negative rho (up, down):  5.783E-03 0.000E+00

     total cpu time spent up to now is      329.0 secs

     total energy              =    -724.95840548 Ry
     estimated scf accuracy    <       0.00087659 Ry

     iteration #  8     ecut=    50.00 Ry     beta= 0.70
     Davidson diagonalization with overlap
     ethr =  1.33E-06,  avg # of iterations =  2.0

     negative rho (up, down):  5.779E-03 0.000E+00

     total cpu time spent up to now is      371.9 secs

     total energy              =    -724.95856511 Ry
     estimated scf accuracy    <       0.00004077 Ry

     iteration #  9     ecut=    50.00 Ry     beta= 0.70
     Davidson diagonalization with overlap
     ethr =  6.18E-08,  avg # of iterations =  4.0

     negative rho (up, down):  5.775E-03 0.000E+00

     total cpu time spent up to now is      418.7 secs

     total energy              =    -724.95859187 Ry
     estimated scf accuracy    <       0.00001677 Ry

     iteration # 10     ecut=    50.00 Ry     beta= 0.70
     Davidson diagonalization with overlap
     ethr =  2.54E-08,  avg # of iterations =  2.0

     negative rho (up, down):  5.774E-03 0.000E+00

     total cpu time spent up to now is      458.9 secs

     total energy              =    -724.95859076 Ry
     estimated scf accuracy    <       0.00000511 Ry

     iteration # 11     ecut=    50.00 Ry     beta= 0.70
     Davidson diagonalization with overlap
     ethr =  7.74E-09,  avg # of iterations =  2.0

     negative rho (up, down):  5.773E-03 0.000E+00

     total cpu time spent up to now is      500.8 secs

     End of self-consistent calculation

          k = 0.0000 0.0000 0.0000 (314950 PWs)   bands (ev):

  -134.7753 -88.9883 -88.9819 -88.9773 -31.9250 -31.6999 -31.6142 -31.5980
   -31.5275 -31.3095 -19.6119 -19.4123 -19.3546 -19.3425 -19.3170 -19.0827
   -17.7735 -17.2594 -17.2375 -16.5341 -16.3672 -16.1274 -15.9132 -15.8639
   -15.6539 -14.6491 -14.5160 -14.1691 -13.9282 -13.6635 -13.5234 -12.9210
   -12.8845

     highest occupied level (ev):   -12.8845

!    total energy              =    -724.95859189 Ry
     estimated scf accuracy    <       0.00000013 Ry

     The total energy is the sum of the following terms:
     one-electron contribution =   -2260.80156827 Ry
     hartree contribution      =    1120.03866859 Ry
     xc contribution           =     -94.59327616 Ry
     ewald contribution        =     567.40990235 Ry
     one-center paw contrib.   =     -57.01231839 Ry

     convergence has been achieved in  11 iterations

     negative rho (up, down):  5.773E-03 0.000E+00

     Forces acting on atoms (cartesian axes, Ry/au):

     atom    1 type  1   force =    -0.00457777    0.00634506    0.01014913
     atom    2 type  2   force =    -0.01112581   -0.00356253   -0.01170156
     atom    3 type  3   force =     0.01295733   -0.00430478    0.00030392
     atom    4 type  2   force =    -0.01522301    0.00594611    0.00591132
     atom    5 type  2   force =     0.01551361   -0.00486372   -0.00299053
     atom    6 type  3   force =    -0.01121507    0.00182721   -0.00603308
     atom    7 type  2   force =     0.00859880    0.00480870    0.01260857
     atom    8 type  2   force =    -0.01160298    0.01054280   -0.00797212
     atom    9 type  3   force =     0.00533115   -0.01303540    0.00343647
     atom   10 type  2   force =     0.00802790    0.01370027   -0.00338579
     atom   11 type  2   force =    -0.00911810   -0.01284840    0.00628796
     atom   12 type  3   force =    -0.00013769    0.00691526   -0.01089923
     atom   13 type  2   force =     0.01017188   -0.00842785    0.01115821
     atom   14 type  2   force =    -0.00604487   -0.00579433    0.01387117
     atom   15 type  3   force =     0.00848143   -0.00528903   -0.00883499
     atom   16 type  2   force =    -0.00650789    0.01514138    0.00307383
     atom   17 type  2   force =     0.00769369   -0.01289836   -0.00741697
     atom   18 type  3   force =    -0.00678108    0.00489243    0.00747243
     atom   19 type  2   force =     0.00555849    0.00090519   -0.01503875

     Total force =     0.067404     Total SCF correction =     0.000500

     BFGS Geometry Optimization
     Energy error            =      0.0E+00 Ry
     Gradient error          =      1.6E-02 Ry/Bohr

     number of scf cycles    =   1
     number of bfgs steps    =   0

     energy             new  =    -724.9585918856 Ry

     new trust radius        =       0.0175879098 bohr
     new conv_thr            =       0.0000010000 Ry


ATOMIC_POSITIONS (angstrom)
Zn               3.2854805498        3.4104266620        3.3014266899
H                1.2764324736        2.4699037904        1.7715358014
O                1.4208637226        3.2495210099        2.3375118269
H                0.6499523299        3.2822125447        2.9465511336
H                5.9302854495        3.5507502326        3.5962424817
O                5.1753152422        3.5372879196        4.2195504314
H                5.3185932888        4.2925286538        4.8239781676
H                2.8513269661        5.4722340108        1.6762363361
O                3.4097121234        5.3432959609        2.4723635031
H                4.2973841834        5.6659048685        2.2268893166
H                2.4746489067        0.9146299189        3.8903734473
O                3.0403271378        1.5860243960        4.3146233783
H                3.8753537267        1.1251361733        4.5416416712
H                2.3683161919        3.8595617713        5.7723103054
O                2.2793551769        4.3069261684        4.9061797253
H                2.4931121730        5.2482864718        5.0662846023
H                4.0903103256        1.5618404799        1.5175681075
O                4.2953516070        2.5050869627        1.6750582397
H                4.1854004252        2.9427830046        0.8071558348



     Writing config-only to output data dir /home/ys/Research/PSID_server_room/qe/zinc_hydrate_relax/pwscf.save/ :
     XML data file
     NEW-OLD atomic charge density approx. for the potential

     negative rho (up, down):  5.718E-03 0.000E+00

     total cpu time spent up to now is      548.9 secs

     Self-consistent Calculation

     iteration #  1     ecut=    50.00 Ry     beta= 0.70
     Davidson diagonalization with overlap
     ethr =  1.00E-06,  avg # of iterations =  4.0

     negative rho (up, down):  5.747E-03 0.000E+00

     total cpu time spent up to now is      601.9 secs

     total energy              =    -724.96084604 Ry
     estimated scf accuracy    <       0.00075830 Ry

     iteration #  2     ecut=    50.00 Ry     beta= 0.70
     Davidson diagonalization with overlap
     ethr =  1.15E-06,  avg # of iterations =  3.0

     negative rho (up, down):  5.780E-03 0.000E+00

     total cpu time spent up to now is      644.9 secs

     total energy              =    -724.96102581 Ry
     estimated scf accuracy    <       0.00023519 Ry

     iteration #  3     ecut=    50.00 Ry     beta= 0.70
     Davidson diagonalization with overlap
     ethr =  3.56E-07,  avg # of iterations =  3.0

     negative rho (up, down):  5.786E-03 0.000E+00

     total cpu time spent up to now is      688.1 secs

     total energy              =    -724.96107450 Ry
     estimated scf accuracy    <       0.00000863 Ry

     iteration #  4     ecut=    50.00 Ry     beta= 0.70
     Davidson diagonalization with overlap
     ethr =  1.31E-08,  avg # of iterations =  3.0

     negative rho (up, down):  5.790E-03 0.000E+00

     total cpu time spent up to now is      731.3 secs

     total energy              =    -724.96107632 Ry
     estimated scf accuracy    <       0.00000322 Ry

     iteration #  5     ecut=    50.00 Ry     beta= 0.70
     Davidson diagonalization with overlap
     ethr =  4.87E-09,  avg # of iterations =  3.0

     negative rho (up, down):  5.788E-03 0.000E+00

     total cpu time spent up to now is      772.3 secs

     End of self-consistent calculation

          k = 0.0000 0.0000 0.0000 (314950 PWs)   bands (ev):

  -134.7056 -88.9176 -88.9125 -88.9093 -31.7776 -31.5672 -31.4874 -31.4706
   -31.3991 -31.2117 -19.4326 -19.2792 -19.2205 -19.2067 -19.1748 -18.9803
   -17.7571 -17.2225 -17.2132 -16.5017 -16.3417 -16.1084 -15.8449 -15.7962
   -15.6106 -14.5731 -14.4428 -14.0877 -13.8661 -13.6046 -13.4641 -12.8653
   -12.8310

     highest occupied level (ev):   -12.8310

!    total energy              =    -724.96107674 Ry
     estimated scf accuracy    <       0.00000048 Ry

     The total energy is the sum of the following terms:
     one-electron contribution =   -2262.24626074 Ry
     hartree contribution      =    1120.91624528 Ry
     xc contribution           =     -94.50729495 Ry
     ewald contribution        =     567.89310763 Ry
     one-center paw contrib.   =     -57.01687396 Ry

     convergence has been achieved in   5 iterations

     negative rho (up, down):  5.788E-03 0.000E+00

     Forces acting on atoms (cartesian axes, Ry/au):

     atom    1 type  1   force =    -0.00319387    0.00448158    0.00729921
     atom    2 type  2   force =    -0.00860253    0.00380492   -0.00610096
     atom    3 type  3   force =    -0.01056522   -0.01043489    0.00965471
     atom    4 type  2   force =     0.00449987    0.00518478   -0.00940766
     atom    5 type  2   force =     0.00111104   -0.00530003    0.00778768
     atom    6 type  3   force =     0.00731086    0.01446345   -0.00590604
     atom    7 type  2   force =     0.00567456   -0.00760328    0.00255396
     atom    8 type  2   force =     0.00039966    0.00713202    0.00931194
     atom    9 type  3   force =     0.00420546   -0.00321978   -0.01768411
     atom   10 type  2   force =    -0.00314209    0.00878112    0.00011044
     atom   11 type  2   force =    -0.00268117   -0.00477163    0.01040873
     atom   12 type  3   force =     0.01067389   -0.01194666   -0.00897529
     atom   13 type  2   force =    -0.00716649    0.00148597    0.00605272
     atom   14 type  2   force =    -0.00744306    0.00241508   -0.00259681
     atom   15 type  3   force =     0.01189162    0.00468690    0.01255951
     atom   16 type  2   force =    -0.01000736   -0.00199678   -0.00007487
     atom   17 type  2   force =     0.01064703    0.00241259   -0.00386052
     atom   18 type  3   force =    -0.01076836   -0.00408187   -0.01100028
     atom   19 type  2   force =     0.00715616   -0.00549348   -0.00013236

     Total force =     0.056888     Total SCF correction =     0.000894
     Energy error            =      2.5E-03 Ry
     Gradient error          =      1.8E-02 Ry/Bohr

     number of scf cycles    =   2
     number of bfgs steps    =   1

     energy             old  =    -724.9585918856 Ry
     energy             new  =    -724.9610767365 Ry

     CASE: energy            _new < energy            _old

     new trust radius        =       0.0260622474 bohr
     new conv_thr            =       0.0000001768 Ry


ATOMIC_POSITIONS (angstrom)
Zn               3.2814998137        3.4159763668        3.3103805503
H                1.2662634899        2.4705061375        1.7625739506
O                1.4205986125        3.2414062258        2.3433305853
H                0.6456092622        3.2879927022        2.9437315837
H                5.9380624732        3.5453992857        3.5994502670
O                5.1744660360        3.5466347937        4.2133060661
H                5.3258796063        4.2902642031        4.8312700335
H                2.8462342512        5.4812702876        1.6780533138
O                3.4146338444        5.3354164416        2.4635390912
H                4.2992221226        5.6773610317        2.2253996076
H                2.4688849488        0.9059234237        3.8993834700
O                3.0465426350        1.5821723106        4.3043391711
H                3.8758088459        1.1221404026        4.5503256506
H                2.3611622904        3.8583217816        5.7771520823
O                2.2902446684        4.3072545603        4.9095108187
H                2.4842372591        5.2540644523        5.0676519929
H                4.1001060034        1.5573370263        1.5118915322
O                4.2859036069        2.5049323636        1.6720186842
H                4.1921622301        2.9399672034        0.8001725488



     Writing config-only to output data dir /home/ys/Research/PSID_server_room/qe/zinc_hydrate_relax/pwscf.save/ :
     XML data file
     NEW-OLD atomic charge density approx. for the potential

     negative rho (up, down):  5.797E-03 0.000E+00

     total cpu time spent up to now is      820.5 secs

     Self-consistent Calculation

     iteration #  1     ecut=    50.00 Ry     beta= 0.70
     Davidson diagonalization with overlap
     ethr =  1.00E-06,  avg # of iterations =  5.0

     negative rho (up, down):  5.747E-03 0.000E+00

     total cpu time spent up to now is      875.2 secs

     total energy              =    -724.96460683 Ry
     estimated scf accuracy    <       0.00048113 Ry

     iteration #  2     ecut=    50.00 Ry     beta= 0.70
     Davidson diagonalization with overlap
     ethr =  7.29E-07,  avg # of iterations =  2.0

     negative rho (up, down):  5.759E-03 0.000E+00

     total cpu time spent up to now is      917.1 secs

     total energy              =    -724.96466692 Ry
     estimated scf accuracy    <       0.00006013 Ry

     iteration #  3     ecut=    50.00 Ry     beta= 0.70
     Davidson diagonalization with overlap
     ethr =  9.11E-08,  avg # of iterations =  4.0

     negative rho (up, down):  5.772E-03 0.000E+00

     total cpu time spent up to now is      960.1 secs

     total energy              =    -724.96468085 Ry
     estimated scf accuracy    <       0.00001569 Ry

     iteration #  4     ecut=    50.00 Ry     beta= 0.70
     Davidson diagonalization with overlap
     ethr =  2.38E-08,  avg # of iterations =  4.0

     negative rho (up, down):  5.775E-03 0.000E+00

     total cpu time spent up to now is     1001.5 secs

     total energy              =    -724.96468371 Ry
     estimated scf accuracy    <       0.00000121 Ry

     iteration #  5     ecut=    50.00 Ry     beta= 0.70
     Davidson diagonalization with overlap
     ethr =  1.84E-09,  avg # of iterations =  3.0

     negative rho (up, down):  5.776E-03 0.000E+00

     total cpu time spent up to now is     1045.0 secs

     total energy              =    -724.96468407 Ry
     estimated scf accuracy    <       0.00000024 Ry

     iteration #  6     ecut=    50.00 Ry     beta= 0.70
     Davidson diagonalization with overlap
     ethr =  3.63E-10,  avg # of iterations =  2.0

     negative rho (up, down):  5.776E-03 0.000E+00

     total cpu time spent up to now is     1085.2 secs

     End of self-consistent calculation

          k = 0.0000 0.0000 0.0000 (314950 PWs)   bands (ev):

  -134.6566 -88.8675 -88.8639 -88.8626 -31.6882 -31.4958 -31.4328 -31.4195
   -31.3477 -31.2187 -19.3326 -19.2530 -19.1952 -19.1857 -19.1516 -19.0271
   -17.7527 -17.1994 -17.1877 -16.4673 -16.3146 -16.0904 -15.7949 -15.7500
   -15.6028 -14.4703 -14.3550 -13.9902 -13.8000 -13.5522 -13.4143 -12.8549
   -12.8208

     highest occupied level (ev):   -12.8208

!    total energy              =    -724.96468410 Ry
     estimated scf accuracy    <          8.9E-09 Ry

     The total energy is the sum of the following terms:
     one-electron contribution =   -2262.47748027 Ry
     hartree contribution      =    1121.11934404 Ry
     xc contribution           =     -94.50283700 Ry
     ewald contribution        =     567.91060742 Ry
     one-center paw contrib.   =     -57.01431829 Ry

     convergence has been achieved in   6 iterations

     negative rho (up, down):  5.776E-03 0.000E+00

     Forces acting on atoms (cartesian axes, Ry/au):

     atom    1 type  1   force =    -0.00111036    0.00152614    0.00269424
     atom    2 type  2   force =    -0.00715140    0.00853944   -0.00134167
     atom    3 type  3   force =    -0.01001282   -0.01318261    0.00452175
     atom    4 type  2   force =     0.00265929    0.00397085   -0.00852682
     atom    5 type  2   force =    -0.00065664   -0.00433693    0.00859191
     atom    6 type  3   force =     0.00894699    0.01414805   -0.00435440
     atom    7 type  2   force =     0.00562598   -0.00869854    0.00044967
     atom    8 type  2   force =     0.00147333    0.00656407    0.00853597
     atom    9 type  3   force =     0.00646268   -0.00010154   -0.01680467
     atom   10 type  2   force =    -0.00710951    0.00643202    0.00044465
     atom   11 type  2   force =     0.00116039   -0.00155118    0.01155879
     atom   12 type  3   force =     0.00670756   -0.01342296   -0.00860918
     atom   13 type  2   force =    -0.00702914    0.00055841    0.00495267
     atom   14 type  2   force =    -0.00668669    0.00445722   -0.00369516
     atom   15 type  3   force =     0.00958053    0.00599266    0.01380504
     atom   16 type  2   force =    -0.00953923   -0.00461215    0.00092747
     atom   17 type  2   force =     0.01012542    0.00455379   -0.00303706
     atom   18 type  3   force =    -0.01007055   -0.00493402   -0.01191335
     atom   19 type  2   force =     0.00662416   -0.00590273    0.00180016

     Total force =     0.055349     Total SCF correction =     0.000185
     Energy error            =      3.6E-03 Ry
     Gradient error          =      1.7E-02 Ry/Bohr

     number of scf cycles    =   3
     number of bfgs steps    =   2

     energy             old  =    -724.9610767365 Ry
     energy             new  =    -724.9646841011 Ry

     CASE: energy            _new < energy            _old


     WARNING: bfgs curvature condition failed, Theta= 0.988
     new trust radius        =       0.0286684722 bohr
     new conv_thr            =       0.0000001680 Ry


ATOMIC_POSITIONS (angstrom)
Zn               3.2778614609        3.4210217365        3.3186119454
H                1.2548380532        2.4739092820        1.7544494096
O                1.4203080738        3.2300559219        2.3476384207
H                0.6395995542        3.2942818656        2.9406392726
H                5.9462951682        3.5394758927        3.6038798919
O                5.1745542897        3.5578680268        4.2066352399
H                5.3345958379        4.2867925566        4.8387846287
H                2.8408271297        5.4918044769        1.6800182215
O                3.4217849808        5.3277462861        2.4531452910
H                4.2991341793        5.6898175052        2.2238287840
H                2.4641197941        0.8972928432        3.9109141502
O                3.0519840207        1.5765046332        4.2921739780
H                3.8762305839        1.1181393327        4.5601244648
H                2.3529427580        3.8580415778        5.7821914814
O                2.3021362422        4.3084809973        4.9144540468
H                2.4737624249        5.2593932938        5.0698111992
H                4.1116543325        1.5532626053        1.5055458961
O                4.2748585127        2.5041752469        1.6676426195
H                4.2000346034        2.9362769193        0.7929920587



     Writing config-only to output data dir /home/ys/Research/PSID_server_room/qe/zinc_hydrate_relax/pwscf.save/ :
     XML data file
     NEW-OLD atomic charge density approx. for the potential

     negative rho (up, down):  5.782E-03 0.000E+00

     total cpu time spent up to now is     1133.4 secs

     Self-consistent Calculation

     iteration #  1     ecut=    50.00 Ry     beta= 0.70
     Davidson diagonalization with overlap
     ethr =  1.00E-06,  avg # of iterations =  5.0

     negative rho (up, down):  5.730E-03 0.000E+00

     total cpu time spent up to now is     1189.6 secs

     total energy              =    -724.96818865 Ry
     estimated scf accuracy    <       0.00066812 Ry

     iteration #  2     ecut=    50.00 Ry     beta= 0.70
     Davidson diagonalization with overlap
     ethr =  1.01E-06,  avg # of iterations =  2.0

     negative rho (up, down):  5.738E-03 0.000E+00

     total cpu time spent up to now is     1231.7 secs

     total energy              =    -724.96827962 Ry
     estimated scf accuracy    <       0.00008458 Ry

     iteration #  3     ecut=    50.00 Ry     beta= 0.70
     Davidson diagonalization with overlap
     ethr =  1.28E-07,  avg # of iterations =  4.0

     negative rho (up, down):  5.748E-03 0.000E+00

     total cpu time spent up to now is     1274.7 secs

     total energy              =    -724.96829902 Ry
     estimated scf accuracy    <       0.00001711 Ry

     iteration #  4     ecut=    50.00 Ry     beta= 0.70
     Davidson diagonalization with overlap
     ethr =  2.59E-08,  avg # of iterations =  3.0

     negative rho (up, down):  5.750E-03 0.000E+00

     total cpu time spent up to now is     1316.2 secs

     total energy              =    -724.96830196 Ry
     estimated scf accuracy    <       0.00000079 Ry

     iteration #  5     ecut=    50.00 Ry     beta= 0.70
     Davidson diagonalization with overlap
     ethr =  1.20E-09,  avg # of iterations =  3.0

     negative rho (up, down):  5.751E-03 0.000E+00

     total cpu time spent up to now is     1360.9 secs

     total energy              =    -724.96830218 Ry
     estimated scf accuracy    <       0.00000031 Ry

     iteration #  6     ecut=    50.00 Ry     beta= 0.70
     Davidson diagonalization with overlap
     ethr =  4.77E-10,  avg # of iterations =  2.0

     negative rho (up, down):  5.751E-03 0.000E+00

     total cpu time spent up to now is     1400.0 secs

     End of self-consistent calculation

          k = 0.0000 0.0000 0.0000 (314950 PWs)   bands (ev):

  -134.6229 -88.8320 -88.8312 -88.8302 -31.6188 -31.4273 -31.3880 -31.3799
   -31.3069 -31.2343 -19.2463 -19.2378 -19.1849 -19.1744 -19.1387 -19.0840
   -17.7495 -17.1876 -17.1703 -16.4286 -16.2866 -16.0794 -15.7571 -15.7168
   -15.6062 -14.3670 -14.2693 -13.8919 -13.7299 -13.5010 -13.3646 -12.8559
   -12.8202

     highest occupied level (ev):   -12.8202

!    total energy              =    -724.96830223 Ry
     estimated scf accuracy    <       0.00000001 Ry

     The total energy is the sum of the following terms:
     one-electron contribution =   -2262.24331788 Ry
     hartree contribution      =    1121.08460651 Ry
     xc contribution           =     -94.50994240 Ry
     ewald contribution        =     567.71114479 Ry
     one-center paw contrib.   =     -57.01079325 Ry

     convergence has been achieved in   6 iterations

     negative rho (up, down):  5.751E-03 0.000E+00

     Forces acting on atoms (cartesian axes, Ry/au):

     atom    1 type  1   force =     0.00072596   -0.00112264   -0.00152602
     atom    2 type  2   force =    -0.00710437    0.00520702   -0.00260212
     atom    3 type  3   force =    -0.01153941   -0.00746009    0.00861307
     atom    4 type  2   force =     0.00444653    0.00248477   -0.01051831
     atom    5 type  2   force =    -0.00110881   -0.00333943    0.00832160
     atom    6 type  3   force =     0.00876839    0.01181877   -0.00346240
     atom    7 type  2   force =     0.00584929   -0.00783859   -0.00008591
     atom    8 type  2   force =     0.00351158    0.00577577    0.00899441
     atom    9 type  3   force =     0.00202440    0.00083898   -0.01575328
     atom   10 type  2   force =    -0.00547468    0.00613829   -0.00061767
     atom   11 type  2   force =     0.00099972   -0.00273853    0.00983344
     atom   12 type  3   force =     0.00915421   -0.01153987   -0.00487293
     atom   13 type  2   force =    -0.00911809    0.00088022    0.00324437
     atom   14 type  2   force =    -0.00580706    0.00563145   -0.00314449
     atom   15 type  3   force =     0.00681630    0.00542041    0.01263946
     atom   16 type  2   force =    -0.00849457   -0.00469346    0.00233167
     atom   17 type  2   force =     0.00906031    0.00445895   -0.00254668
     atom   18 type  3   force =    -0.00857867   -0.00450410   -0.01090538
     atom   19 type  2   force =     0.00586897   -0.00541791    0.00205715

     Total force =     0.050810     Total SCF correction =     0.000234
     Energy error            =      3.6E-03 Ry
     Gradient error          =      1.6E-02 Ry/Bohr

     number of scf cycles    =   4
     number of bfgs steps    =   3

     energy             old  =    -724.9646841011 Ry
     energy             new  =    -724.9683022307 Ry

     CASE: energy            _new < energy            _old

     new trust radius        =       0.0430027083 bohr
     new conv_thr            =       0.0000001575 Ry


ATOMIC_POSITIONS (angstrom)
Zn               3.2739410846        3.4263720258        3.3274527599
H                1.2373817059        2.4774361338        1.7416209862
O                1.4180137751        3.2163264284        2.3571498129
H                0.6320253625        3.3027230541        2.9339249923
H                5.9580682070        3.5311547057        3.6109882670
O                5.1753323633        3.5738647997        4.1971625879
H                5.3482175561        4.2815436032        4.8494686350
H                2.8345151398        5.5073844286        1.6838634714
O                3.4297005655        5.3172562617        2.4372694729
H                4.2994198295        5.7084965670        2.2207127849
H                2.4572757518        0.8836163510        3.9277649842
O                3.0621720627        1.5683904887        4.2762783770
H                3.8747446891        1.1123605828        4.5737271023
H                2.3409059626        3.8590308743        5.7898024053
O                2.3182801820        4.3104159050        4.9220488835
H                2.4582477384        5.2667500429        5.0742872531
H                4.1287976552        1.5476017830        1.4962802252
O                4.2588191604        2.5029474855        1.6609390758
H                4.2116632084        2.9306694787        0.7827389233



     Writing config-only to output data dir /home/ys/Research/PSID_server_room/qe/zinc_hydrate_relax/pwscf.save/ :
     XML data file
     NEW-OLD atomic charge density approx. for the potential

     negative rho (up, down):  5.747E-03 0.000E+00

     total cpu time spent up to now is     1446.5 secs

     Self-consistent Calculation

     iteration #  1     ecut=    50.00 Ry     beta= 0.70
     Davidson diagonalization with overlap
     ethr =  1.00E-06,  avg # of iterations =  6.0

     negative rho (up, down):  5.685E-03 0.000E+00

     total cpu time spent up to now is     1501.9 secs

     total energy              =    -724.97244246 Ry
     estimated scf accuracy    <       0.00130727 Ry

     iteration #  2     ecut=    50.00 Ry     beta= 0.70
     Davidson diagonalization with overlap
     ethr =  1.98E-06,  avg # of iterations =  2.0

     negative rho (up, down):  5.691E-03 0.000E+00

     total cpu time spent up to now is     1541.9 secs

     total energy              =    -724.97261207 Ry
     estimated scf accuracy    <       0.00014562 Ry

     iteration #  3     ecut=    50.00 Ry     beta= 0.70
     Davidson diagonalization with overlap
     ethr =  2.21E-07,  avg # of iterations =  2.0

     negative rho (up, down):  5.705E-03 0.000E+00

     total cpu time spent up to now is     1582.5 secs

     total energy              =    -724.97264189 Ry
     estimated scf accuracy    <       0.00002762 Ry

     iteration #  4     ecut=    50.00 Ry     beta= 0.70
     Davidson diagonalization with overlap
     ethr =  4.18E-08,  avg # of iterations =  2.0

     negative rho (up, down):  5.708E-03 0.000E+00

     total cpu time spent up to now is     1622.4 secs

     total energy              =    -724.97264651 Ry
     estimated scf accuracy    <       0.00000130 Ry

     iteration #  5     ecut=    50.00 Ry     beta= 0.70
     Davidson diagonalization with overlap
     ethr =  1.97E-09,  avg # of iterations =  3.0

     negative rho (up, down):  5.710E-03 0.000E+00

     total cpu time spent up to now is     1664.7 secs

     total energy              =    -724.97264683 Ry
     estimated scf accuracy    <       0.00000060 Ry

     iteration #  6     ecut=    50.00 Ry     beta= 0.70
     Davidson diagonalization with overlap
     ethr =  9.13E-10,  avg # of iterations =  3.0

     negative rho (up, down):  5.708E-03 0.000E+00

     total cpu time spent up to now is     1702.8 secs

     End of self-consistent calculation

          k = 0.0000 0.0000 0.0000 (314950 PWs)   bands (ev):

  -134.5831 -88.7940 -88.7905 -88.7899 -31.5399 -31.3330 -31.3235 -31.3205
   -31.2463 -31.2303 -19.2047 -19.1696 -19.1457 -19.1402 -19.1094 -19.1070
   -17.7502 -17.1714 -17.1565 -16.3794 -16.2463 -16.0635 -15.7114 -15.6768
   -15.6081 -14.2279 -14.1537 -13.7660 -13.6270 -13.4298 -13.2951 -12.8608
   -12.8218

     highest occupied level (ev):   -12.8218

!    total energy              =    -724.97264692 Ry
     estimated scf accuracy    <       0.00000005 Ry

     The total energy is the sum of the following terms:
     one-electron contribution =   -2261.44419134 Ry
     hartree contribution      =    1120.79811037 Ry
     xc contribution           =     -94.51468257 Ry
     ewald contribution        =     567.19473795 Ry
     one-center paw contrib.   =     -57.00662133 Ry

     convergence has been achieved in   6 iterations

     negative rho (up, down):  5.708E-03 0.000E+00

     Forces acting on atoms (cartesian axes, Ry/au):

     atom    1 type  1   force =     0.00275687   -0.00403817   -0.00616044
     atom    2 type  2   force =    -0.00486595    0.00962776    0.00246026
     atom    3 type  3   force =    -0.00844875   -0.00995751    0.00123490
     atom    4 type  2   force =    -0.00027515    0.00158576   -0.00723393
     atom    5 type  2   force =    -0.00149920   -0.00228314    0.00765155
     atom    6 type  3   force =     0.00871860    0.00985140   -0.00160890
     atom    7 type  2   force =     0.00555779   -0.00753759   -0.00131068
     atom    8 type  2   force =     0.00292264    0.00544403    0.00594885
     atom    9 type  3   force =     0.00475295    0.00338628   -0.01232972
     atom   10 type  2   force =    -0.00852560    0.00351263   -0.00026899
     atom   11 type  2   force =     0.00463066    0.00080062    0.01020630
     atom   12 type  3   force =     0.00311174   -0.01160041   -0.00466383
     atom   13 type  2   force =    -0.00652606   -0.00111401    0.00291734
     atom   14 type  2   force =    -0.00477698    0.00676611   -0.00253849
     atom   15 type  3   force =     0.00386804    0.00572298    0.01142138
     atom   16 type  2   force =    -0.00735574   -0.00566678    0.00359674
     atom   17 type  2   force =     0.00776424    0.00485630   -0.00155574
     atom   18 type  3   force =    -0.00672245   -0.00481832   -0.01027481
     atom   19 type  2   force =     0.00491235   -0.00453795    0.00250821

     Total force =     0.045775     Total SCF correction =     0.000301
     Energy error            =      4.3E-03 Ry
     Gradient error          =      1.2E-02 Ry/Bohr

     number of scf cycles    =   5
     number of bfgs steps    =   4

     energy             old  =    -724.9683022307 Ry
     energy             new  =    -724.9726469188 Ry

     CASE: energy            _new < energy            _old

     new trust radius        =       0.0645040624 bohr
     new conv_thr            =       0.0000001233 Ry


ATOMIC_POSITIONS (angstrom)
Zn               3.2698090293        3.4318586647        3.3367176004
H                1.2112550127        2.4865741993        1.7252150642
O                1.4148146334        3.1929191095        2.3679821612
H                0.6176419882        3.3152560403        2.9242685072
H                5.9756484006        3.5187673451        3.6226200397
O                5.1778555470        3.5984613864        4.1836061056
H                5.3698190004        4.2726177739        4.8648869545
H                2.8251212527        5.5318827893        1.6888829261
O                3.4436685820        5.3033425115        2.4131635205
H                4.2969272593        5.7360728641        2.2159897548
H                2.4496565550        0.8647970312        3.9552043072
O                3.0749461507        1.5542567848        4.2517452565
H                3.8727972330        1.1021478750        4.5947208489
H                2.3223943282        3.8624271421        5.8015650732
O                2.3415464826        4.3143806124        4.9345763138
H                2.4340998606        5.2765922413        5.0826715772
H                4.1553947990        1.5398338326        1.4825160477
O                4.2345175457        2.5001281312        1.6494942934
H                4.2296083396        2.9220246653        0.7676546481



     Writing config-only to output data dir /home/ys/Research/PSID_server_room/qe/zinc_hydrate_relax/pwscf.save/ :
     XML data file
     NEW-OLD atomic charge density approx. for the potential

     negative rho (up, down):  5.681E-03 0.000E+00

     total cpu time spent up to now is     1749.3 secs

     Self-consistent Calculation

     iteration #  1     ecut=    50.00 Ry     beta= 0.70
     Davidson diagonalization with overlap
     ethr =  1.00E-06,  avg # of iterations =  6.0

     negative rho (up, down):  5.602E-03 0.000E+00

     total cpu time spent up to now is     1807.9 secs

     total energy              =    -724.97715325 Ry
     estimated scf accuracy    <       0.00303677 Ry

     iteration #  2     ecut=    50.00 Ry     beta= 0.70
     Davidson diagonalization with overlap
     ethr =  4.60E-06,  avg # of iterations =  2.0

     negative rho (up, down):  5.601E-03 0.000E+00

     total cpu time spent up to now is     1847.4 secs

     total energy              =    -724.97754245 Ry
     estimated scf accuracy    <       0.00033632 Ry

     iteration #  3     ecut=    50.00 Ry     beta= 0.70
     Davidson diagonalization with overlap
     ethr =  5.10E-07,  avg # of iterations =  3.0

     negative rho (up, down):  5.628E-03 0.000E+00

     total cpu time spent up to now is     1888.3 secs

     total energy              =    -724.97761037 Ry
     estimated scf accuracy    <       0.00008382 Ry

     iteration #  4     ecut=    50.00 Ry     beta= 0.70
     Davidson diagonalization with overlap
     ethr =  1.27E-07,  avg # of iterations =  3.0

     negative rho (up, down):  5.632E-03 0.000E+00

     total cpu time spent up to now is     1928.8 secs

     total energy              =    -724.97762800 Ry
     estimated scf accuracy    <       0.00000411 Ry

     iteration #  5     ecut=    50.00 Ry     beta= 0.70
     Davidson diagonalization with overlap
     ethr =  6.23E-09,  avg # of iterations =  3.0

     negative rho (up, down):  5.633E-03 0.000E+00

     total cpu time spent up to now is     1971.2 secs

     total energy              =    -724.97762898 Ry
     estimated scf accuracy    <       0.00000157 Ry

     iteration #  6     ecut=    50.00 Ry     beta= 0.70
     Davidson diagonalization with overlap
     ethr =  2.38E-09,  avg # of iterations =  2.0

     negative rho (up, down):  5.632E-03 0.000E+00

     total cpu time spent up to now is     2010.6 secs

     total energy              =    -724.97762918 Ry
     estimated scf accuracy    <       0.00000013 Ry

     iteration #  7     ecut=    50.00 Ry     beta= 0.70
     Davidson diagonalization with overlap
     ethr =  1.94E-10,  avg # of iterations =  3.0

     negative rho (up, down):  5.632E-03 0.000E+00

     total cpu time spent up to now is     2051.8 secs

     End of self-consistent calculation

          k = 0.0000 0.0000 0.0000 (314950 PWs)   bands (ev):

  -134.5445 -88.7592 -88.7519 -88.7480 -31.4516 -31.2521 -31.2403 -31.2348
   -31.1622 -31.1490 -19.2047 -19.1424 -19.0963 -19.0813 -19.0502 -18.9613
   -17.7457 -17.1526 -17.1494 -16.3039 -16.1910 -16.0576 -15.6626 -15.6363
   -15.6099 -14.0446 -13.9990 -13.6043 -13.4743 -13.3372 -13.2012 -12.8784
   -12.8341

     highest occupied level (ev):   -12.8341

!    total energy              =    -724.97762922 Ry
     estimated scf accuracy    <       0.00000002 Ry

     The total energy is the sum of the following terms:
     one-electron contribution =   -2259.10464472 Ry
     hartree contribution      =    1119.77802946 Ry
     xc contribution           =     -94.51734896 Ry
     ewald contribution        =     565.86772782 Ry
     one-center paw contrib.   =     -57.00139282 Ry

     convergence has been achieved in   7 iterations

     negative rho (up, down):  5.632E-03 0.000E+00

     Forces acting on atoms (cartesian axes, Ry/au):

     atom    1 type  1   force =     0.00490816   -0.00721536   -0.01135571
     atom    2 type  2   force =    -0.00341065    0.00637622    0.00149736
     atom    3 type  3   force =    -0.01110785   -0.00333933    0.00565416
     atom    4 type  2   force =     0.00218642   -0.00017975   -0.00898253
     atom    5 type  2   force =    -0.00273477   -0.00117070    0.00697971
     atom    6 type  3   force =     0.00940263    0.00708806   -0.00016023
     atom    7 type  2   force =     0.00458243   -0.00685496   -0.00247178
     atom    8 type  2   force =     0.00550725    0.00367253    0.00682009
     atom    9 type  3   force =    -0.00081098    0.00528114   -0.01180220
     atom   10 type  2   force =    -0.00695858    0.00215343   -0.00051946
     atom   11 type  2   force =     0.00449721    0.00103441    0.00777577
     atom   12 type  3   force =     0.00602738   -0.01047896    0.00015231
     atom   13 type  2   force =    -0.00883252    0.00002171    0.00062321
     atom   14 type  2   force =    -0.00362373    0.00792886   -0.00241240
     atom   15 type  3   force =     0.00066012    0.00526950    0.00998162
     atom   16 type  2   force =    -0.00578707   -0.00638155    0.00472081
     atom   17 type  2   force =     0.00587372    0.00535127    0.00009962
     atom   18 type  3   force =    -0.00401275   -0.00537284   -0.01014811
     atom   19 type  2   force =     0.00363357   -0.00318369    0.00354776

     Total force =     0.044193     Total SCF correction =     0.000198
     Energy error            =      5.0E-03 Ry
     Gradient error          =      1.2E-02 Ry/Bohr

     number of scf cycles    =   6
     number of bfgs steps    =   5

     energy             old  =    -724.9726469188 Ry
     energy             new  =    -724.9776292199 Ry

     CASE: energy            _new < energy            _old

     new trust radius        =       0.0967560936 bohr
     new conv_thr            =       0.0000001180 Ry


ATOMIC_POSITIONS (angstrom)
Zn               3.2669945968        3.4350990804        3.3426087557
H                1.1721203457        2.5004968913        1.7008389975
O                1.4057318546        3.1611997233        2.3879024848
H                0.5970482549        3.3326942084        2.9066035539
H                6.0008008927        3.5006893922        3.6414237790
O                5.1845718428        3.6350831490        4.1644624619
H                5.4031687086        4.2579081147        4.8866430403
H                2.8141155225        5.5687514374        1.6982308433
O                3.4608469115        5.2855222160        2.3746114852
H                4.2919769131        5.7771023544        2.2084967152
H                2.4398394657        0.8372431519        3.9972276716
O                3.0969921067        1.5309875589        4.2182915582
H                3.8663434700        1.0869599392        4.6250241578
H                2.2943553199        3.8708271351        5.8192786071
O                2.3739446534        4.3214319114        4.9546856503
H                2.3972650724        5.2892885562        5.0979431462
H                4.1956978570        1.5297582459        1.4630737117
O                4.1990137593        2.4939524084        1.6297524597
H                4.2566944525        2.9093455258        0.7463819205



     Writing config-only to output data dir /home/ys/Research/PSID_server_room/qe/zinc_hydrate_relax/pwscf.save/ :
     XML data file
     NEW-OLD atomic charge density approx. for the potential

     negative rho (up, down):  5.543E-03 0.000E+00

     total cpu time spent up to now is     2098.4 secs

     Self-consistent Calculation

     iteration #  1     ecut=    50.00 Ry     beta= 0.70
     Davidson diagonalization with overlap
     ethr =  1.00E-06,  avg # of iterations =  8.0

     negative rho (up, down):  5.491E-03 0.000E+00

     total cpu time spent up to now is     2160.2 secs

     total energy              =    -724.98135936 Ry
     estimated scf accuracy    <       0.00669661 Ry

     iteration #  2     ecut=    50.00 Ry     beta= 0.70
     Davidson diagonalization with overlap
     ethr =  1.01E-05,  avg # of iterations =  2.0

     negative rho (up, down):  5.481E-03 0.000E+00

     total cpu time spent up to now is     2199.5 secs

     total energy              =    -724.98226372 Ry
     estimated scf accuracy    <       0.00069151 Ry

     iteration #  3     ecut=    50.00 Ry     beta= 0.70
     Davidson diagonalization with overlap
     ethr =  1.05E-06,  avg # of iterations =  2.0

     negative rho (up, down):  5.514E-03 0.000E+00

     total cpu time spent up to now is     2240.2 secs

     total energy              =    -724.98238838 Ry
     estimated scf accuracy    <       0.00017979 Ry

     iteration #  4     ecut=    50.00 Ry     beta= 0.70
     Davidson diagonalization with overlap
     ethr =  2.72E-07,  avg # of iterations =  2.0

     negative rho (up, down):  5.515E-03 0.000E+00

     total cpu time spent up to now is     2280.5 secs

     total energy              =    -724.98243038 Ry
     estimated scf accuracy    <       0.00001272 Ry

     iteration #  5     ecut=    50.00 Ry     beta= 0.70
     Davidson diagonalization with overlap
     ethr =  1.93E-08,  avg # of iterations =  3.0

     negative rho (up, down):  5.518E-03 0.000E+00

     total cpu time spent up to now is     2321.7 secs

     total energy              =    -724.98243330 Ry
     estimated scf accuracy    <       0.00000387 Ry

     iteration #  6     ecut=    50.00 Ry     beta= 0.70
     Davidson diagonalization with overlap
     ethr =  5.86E-09,  avg # of iterations =  2.0

     negative rho (up, down):  5.515E-03 0.000E+00

     total cpu time spent up to now is     2361.0 secs

     total energy              =    -724.98243375 Ry
     estimated scf accuracy    <       0.00000028 Ry

     iteration #  7     ecut=    50.00 Ry     beta= 0.70
     Davidson diagonalization with overlap
     ethr =  4.19E-10,  avg # of iterations =  3.0

     negative rho (up, down):  5.514E-03 0.000E+00

     total cpu time spent up to now is     2402.1 secs

     End of self-consistent calculation

          k = 0.0000 0.0000 0.0000 (314950 PWs)   bands (ev):

  -134.5273 -88.7455 -88.7344 -88.7266 -31.3516 -31.1792 -31.1260 -31.1123
   -31.0455 -30.9674 -19.1973 -19.0224 -18.9920 -18.9609 -18.9394 -18.7534
   -17.7352 -17.1496 -17.1249 -16.2105 -16.1283 -16.0598 -15.6275 -15.6163
   -15.6031 -13.8392 -13.7986 -13.4160 -13.2749 -13.2294 -13.0863 -12.9157
   -12.8524

     highest occupied level (ev):   -12.8524

!    total energy              =    -724.98243384 Ry
     estimated scf accuracy    <       0.00000004 Ry

     The total energy is the sum of the following terms:
     one-electron contribution =   -2253.58366835 Ry
     hartree contribution      =    1117.20207584 Ry
     xc contribution           =     -94.50412429 Ry
     ewald contribution        =     562.89986376 Ry
     one-center paw contrib.   =     -56.99658079 Ry

     convergence has been achieved in   7 iterations

     negative rho (up, down):  5.514E-03 0.000E+00

     Forces acting on atoms (cartesian axes, Ry/au):

     atom    1 type  1   force =     0.00640509   -0.00938613   -0.01504218
     atom    2 type  2   force =     0.00216848    0.01144254    0.00851129
     atom    3 type  3   force =    -0.01022840   -0.00677088   -0.00336116
     atom    4 type  2   force =    -0.00184591   -0.00020111   -0.00479623
     atom    5 type  2   force =    -0.00506062   -0.00029015    0.00592106
     atom    6 type  3   force =     0.01195042    0.00544089    0.00221773
     atom    7 type  2   force =     0.00160898   -0.00723710   -0.00495137
     atom    8 type  2   force =     0.00452020    0.00207851    0.00441739
     atom    9 type  3   force =     0.00248393    0.00977867   -0.00972710
     atom   10 type  2   force =    -0.01081614   -0.00334600    0.00158490
     atom   11 type  2   force =     0.00909524    0.00836861    0.00659320
     atom   12 type  3   force =    -0.00106971   -0.01370388    0.00099314
     atom   13 type  2   force =    -0.00571730   -0.00035726    0.00038146
     atom   14 type  2   force =    -0.00226954    0.00866624   -0.00406410
     atom   15 type  3   force =    -0.00195297    0.00615434    0.00994887
     atom   16 type  2   force =    -0.00388622   -0.00907602    0.00433990
     atom   17 type  2   force =     0.00324013    0.00687587    0.00298489
     atom   18 type  3   force =    -0.00047811   -0.00718372   -0.01192994
     atom   19 type  2   force =     0.00185244   -0.00125343    0.00597824

     Total force =     0.050151     Total SCF correction =     0.000419
     Energy error            =      4.8E-03 Ry
     Gradient error          =      1.5E-02 Ry/Bohr

     number of scf cycles    =   7
     number of bfgs steps    =   6

     energy             old  =    -724.9776292199 Ry
     energy             new  =    -724.9824338356 Ry

     CASE: energy            _new < energy            _old

     new trust radius        =       0.0774231957 bohr
     new conv_thr            =       0.0000001504 Ry


ATOMIC_POSITIONS (angstrom)
Zn               3.2684016397        3.4322831628        3.3385614387
H                1.1422630324        2.5173130849        1.6856280452
O                1.3939763690        3.1327116582        2.4013611201
H                0.5773613956        3.3470125182        2.8910892470
H                6.0193881244        3.4858757559        3.6588181677
O                5.1957515889        3.6664627624        4.1504107288
H                5.4308445980        4.2430117656        4.9022248214
H                2.8065580503        5.5999834857        1.7067648083
O                3.4758480235        5.2763124522        2.3395224144
H                4.2829636976        5.8082711639        2.2033167443
H                2.4366330283        0.8197566251        4.0341401281
O                3.1132835825        1.5053373969        4.1921344427
H                3.8595425759        1.0737980892        4.6504112312
H                2.2704906000        3.8818718867        5.8326767621
O                2.3985684904        4.3297379805        4.9746487058
H                2.3656967485        5.2957903394        5.1130361855
H                4.2295780985        1.5240665836        1.4492608998
O                4.1710223798        2.4852515260        1.6080624449
H                4.2793499763        2.8994927627        0.7314126638



     Writing config-only to output data dir /home/ys/Research/PSID_server_room/qe/zinc_hydrate_relax/pwscf.save/ :
     XML data file
     NEW-OLD atomic charge density approx. for the potential

     negative rho (up, down):  5.480E-03 0.000E+00

     total cpu time spent up to now is     2448.6 secs

     Self-consistent Calculation

     iteration #  1     ecut=    50.00 Ry     beta= 0.70
     Davidson diagonalization with overlap
     ethr =  1.00E-06,  avg # of iterations =  8.0

     negative rho (up, down):  5.429E-03 0.000E+00

     total cpu time spent up to now is     2508.4 secs

     total energy              =    -724.98464703 Ry
     estimated scf accuracy    <       0.00501487 Ry

     iteration #  2     ecut=    50.00 Ry     beta= 0.70
     Davidson diagonalization with overlap
     ethr =  7.60E-06,  avg # of iterations =  2.0

     negative rho (up, down):  5.410E-03 0.000E+00

     total cpu time spent up to now is     2547.8 secs

     total energy              =    -724.98535365 Ry
     estimated scf accuracy    <       0.00054133 Ry

     iteration #  3     ecut=    50.00 Ry     beta= 0.70
     Davidson diagonalization with overlap
     ethr =  8.20E-07,  avg # of iterations =  2.0

     negative rho (up, down):  5.434E-03 0.000E+00

     total cpu time spent up to now is     2589.0 secs

     total energy              =    -724.98545915 Ry
     estimated scf accuracy    <       0.00014466 Ry

     iteration #  4     ecut=    50.00 Ry     beta= 0.70
     Davidson diagonalization with overlap
     ethr =  2.19E-07,  avg # of iterations =  2.0

     negative rho (up, down):  5.434E-03 0.000E+00

     total cpu time spent up to now is     2628.7 secs

     total energy              =    -724.98549164 Ry
     estimated scf accuracy    <       0.00000978 Ry

     iteration #  5     ecut=    50.00 Ry     beta= 0.70
     Davidson diagonalization with overlap
     ethr =  1.48E-08,  avg # of iterations =  3.0

     negative rho (up, down):  5.434E-03 0.000E+00

     total cpu time spent up to now is     2670.0 secs

     total energy              =    -724.98549412 Ry
     estimated scf accuracy    <       0.00000303 Ry

     iteration #  6     ecut=    50.00 Ry     beta= 0.70
     Davidson diagonalization with overlap
     ethr =  4.59E-09,  avg # of iterations =  2.0

     negative rho (up, down):  5.433E-03 0.000E+00

     total cpu time spent up to now is     2709.0 secs

     total energy              =    -724.98549438 Ry
     estimated scf accuracy    <       0.00000024 Ry

     iteration #  7     ecut=    50.00 Ry     beta= 0.70
     Davidson diagonalization with overlap
     ethr =  3.68E-10,  avg # of iterations =  3.0

     negative rho (up, down):  5.432E-03 0.000E+00

     total cpu time spent up to now is     2750.4 secs

     End of self-consistent calculation

          k = 0.0000 0.0000 0.0000 (314950 PWs)   bands (ev):

  -134.5650 -88.7848 -88.7715 -88.7613 -31.3077 -31.1422 -31.0808 -31.0643
   -31.0023 -30.8901 -19.1689 -18.9638 -18.9420 -18.9039 -18.8848 -18.6729
   -17.7106 -17.1420 -17.1104 -16.1442 -16.1171 -16.0599 -15.6467 -15.6372
   -15.6273 -13.7491 -13.7022 -13.3128 -13.1878 -13.1562 -13.0316 -12.9596
   -12.8667

     highest occupied level (ev):   -12.8667

!    total energy              =    -724.98549446 Ry
     estimated scf accuracy    <       0.00000008 Ry

     The total energy is the sum of the following terms:
     one-electron contribution =   -2246.11236209 Ry
     hartree contribution      =    1113.54066561 Ry
     xc contribution           =     -94.51356341 Ry
     ewald contribution        =     559.09223884 Ry
     one-center paw contrib.   =     -56.99247340 Ry

     convergence has been achieved in   7 iterations

     negative rho (up, down):  5.432E-03 0.000E+00

     Forces acting on atoms (cartesian axes, Ry/au):

     atom    1 type  1   force =     0.00620437   -0.00898039   -0.01453042
     atom    2 type  2   force =     0.00302758    0.00510626    0.00300949
     atom    3 type  3   force =    -0.00948939    0.00114923    0.00361292
     atom    4 type  2   force =    -0.00022551   -0.00063870   -0.00414211
     atom    5 type  2   force =    -0.00233534   -0.00062696    0.00247048
     atom    6 type  3   force =     0.00710587    0.00161631    0.00142267
     atom    7 type  2   force =     0.00010735   -0.00406701   -0.00250848
     atom    8 type  2   force =     0.00304514    0.00114038    0.00256310
     atom    9 type  3   force =    -0.00373134    0.00576993   -0.00610973
     atom   10 type  2   force =    -0.00428180   -0.00200281    0.00176337
     atom   11 type  2   force =     0.00253231    0.00415830    0.00243353
     atom   12 type  3   force =     0.00480328   -0.00619799    0.00424980
     atom   13 type  2   force =    -0.00430748    0.00038039   -0.00003799
     atom   14 type  2   force =    -0.00174733    0.00623568   -0.00219191
     atom   15 type  3   force =    -0.00183465    0.00265472    0.00439088
     atom   16 type  2   force =    -0.00237820   -0.00558054    0.00360534
     atom   17 type  2   force =     0.00139905    0.00263737    0.00374492
     atom   18 type  3   force =     0.00118488   -0.00447994   -0.00724281
     atom   19 type  2   force =     0.00092121    0.00172577    0.00349692

     Total force =     0.032874     Total SCF correction =     0.000493
     Energy error            =      3.1E-03 Ry
     Gradient error          =      1.5E-02 Ry/Bohr

     number of scf cycles    =   8
     number of bfgs steps    =   7

     energy             old  =    -724.9824338356 Ry
     energy             new  =    -724.9854944613 Ry

     CASE: energy            _new < energy            _old

     new trust radius        =       0.0522480741 bohr
     new conv_thr            =       0.0000001453 Ry


ATOMIC_POSITIONS (angstrom)
Zn               3.2732698798        3.4247431088        3.3266623153
H                1.1245524231        2.5305085902        1.6762586205
O                1.3812529716        3.1160949204        2.4133939869
H                0.5634205761        3.3561073889        2.8790532821
H                6.0314502597        3.4755154142        3.6707858814
O                5.2059821268        3.6871065168        4.1418035530
H                5.4490835096        4.2316050753        4.9119056580
H                2.8025500617        5.6214798092        1.7128602081
O                3.4823897595        5.2726589247        2.3139078640
H                4.2758842800        5.8281407486        2.2010141406
H                2.4345090147        0.8097376024        4.0593148137
O                3.1278458543        1.4866023744        4.1779436648
H                3.8534368499        1.0649652179        4.6674828899
H                2.2536161943        3.8923973587        5.8412150755
O                2.4137287701        4.3358487138        4.9887171996
H                2.3435822039        5.2979046684        5.1253538601
H                4.2525310166        1.5204349352        1.4425595987
O                4.1536625312        2.4774829098        1.5906694660
H                4.2947737172        2.8950067222        0.7225789217



     Writing config-only to output data dir /home/ys/Research/PSID_server_room/qe/zinc_hydrate_relax/pwscf.save/ :
     XML data file
     NEW-OLD atomic charge density approx. for the potential

     negative rho (up, down):  5.481E-03 0.000E+00

     total cpu time spent up to now is     2797.0 secs

     Self-consistent Calculation

     iteration #  1     ecut=    50.00 Ry     beta= 0.70
     Davidson diagonalization with overlap
     ethr =  1.00E-06,  avg # of iterations =  6.0

     negative rho (up, down):  5.351E-03 0.000E+00

     total cpu time spent up to now is     2855.1 secs

     total energy              =    -724.98673496 Ry
     estimated scf accuracy    <       0.00225400 Ry

     iteration #  2     ecut=    50.00 Ry     beta= 0.70
     Davidson diagonalization with overlap
     ethr =  3.42E-06,  avg # of iterations =  2.0

     negative rho (up, down):  5.360E-03 0.000E+00

     total cpu time spent up to now is     2894.2 secs

     total energy              =    -724.98699451 Ry
     estimated scf accuracy    <       0.00020635 Ry

     iteration #  3     ecut=    50.00 Ry     beta= 0.70
     Davidson diagonalization with overlap
     ethr =  3.13E-07,  avg # of iterations =  2.0

     negative rho (up, down):  5.381E-03 0.000E+00

     total cpu time spent up to now is     2935.4 secs

     total energy              =    -724.98703381 Ry
     estimated scf accuracy    <       0.00006922 Ry

     iteration #  4     ecut=    50.00 Ry     beta= 0.70
     Davidson diagonalization with overlap
     ethr =  1.05E-07,  avg # of iterations =  2.0

     negative rho (up, down):  5.384E-03 0.000E+00

     total cpu time spent up to now is     2975.2 secs

     total energy              =    -724.98704865 Ry
     estimated scf accuracy    <       0.00000358 Ry

     iteration #  5     ecut=    50.00 Ry     beta= 0.70
     Davidson diagonalization with overlap
     ethr =  5.42E-09,  avg # of iterations =  3.0

     negative rho (up, down):  5.385E-03 0.000E+00

     total cpu time spent up to now is     3017.8 secs

     total energy              =    -724.98704963 Ry
     estimated scf accuracy    <       0.00000129 Ry

     iteration #  6     ecut=    50.00 Ry     beta= 0.70
     Davidson diagonalization with overlap
     ethr =  1.96E-09,  avg # of iterations =  2.0

     negative rho (up, down):  5.384E-03 0.000E+00

     total cpu time spent up to now is     3056.1 secs

     End of self-consistent calculation

          k = 0.0000 0.0000 0.0000 (314950 PWs)   bands (ev):

  -134.6078 -88.8273 -88.8138 -88.8028 -31.2686 -31.1171 -31.0680 -31.0496
   -30.9939 -30.8898 -19.0948 -18.9365 -18.9157 -18.8776 -18.8671 -18.6910
   -17.6852 -17.1197 -17.1021 -16.1213 -16.1094 -16.0545 -15.6766 -15.6635
   -15.6582 -13.7228 -13.6873 -13.2489 -13.1511 -13.1116 -13.0132 -12.9771
   -12.8886

     highest occupied level (ev):   -12.8886

!    total energy              =    -724.98704973 Ry
     estimated scf accuracy    <       0.00000009 Ry

     The total energy is the sum of the following terms:
     one-electron contribution =   -2239.79538804 Ry
     hartree contribution      =    1110.39754906 Ry
     xc contribution           =     -94.52347517 Ry
     ewald contribution        =     555.92429419 Ry
     one-center paw contrib.   =     -56.99002977 Ry

     convergence has been achieved in   6 iterations

     negative rho (up, down):  5.384E-03 0.000E+00

     Forces acting on atoms (cartesian axes, Ry/au):

     atom    1 type  1   force =     0.00485380   -0.00677548   -0.01127045
     atom    2 type  2   force =     0.00378385    0.00339451    0.00152458
     atom    3 type  3   force =    -0.00108852    0.00086359    0.00090602
     atom    4 type  2   force =    -0.00658480    0.00149873    0.00112508
     atom    5 type  2   force =     0.00082146   -0.00129764   -0.00007850
     atom    6 type  3   force =     0.00192348   -0.00106577   -0.00072307
     atom    7 type  2   force =    -0.00059674   -0.00126904    0.00055101
     atom    8 type  2   force =    -0.00239764    0.00272011   -0.00216730
     atom    9 type  3   force =    -0.00093445    0.00128853   -0.00054578
     atom   10 type  2   force =    -0.00198317   -0.00194369    0.00233784
     atom   11 type  2   force =     0.00180658    0.00515517    0.00105455
     atom   12 type  3   force =    -0.00159038   -0.00173192    0.00032392
     atom   13 type  2   force =     0.00299849   -0.00240249    0.00389647
     atom   14 type  2   force =    -0.00171253    0.00268473    0.00028405
     atom   15 type  3   force =    -0.00036835   -0.00049028   -0.00099597
     atom   16 type  2   force =    -0.00156496   -0.00129250    0.00220240
     atom   17 type  2   force =     0.00089410   -0.00154559    0.00310862
     atom   18 type  3   force =     0.00090459   -0.00108607   -0.00204263
     atom   19 type  2   force =     0.00083517    0.00329510    0.00050917

     Total force =     0.020882     Total SCF correction =     0.000332
     Energy error            =      1.6E-03 Ry
     Gradient error          =      1.1E-02 Ry/Bohr

     number of scf cycles    =   9
     number of bfgs steps    =   8

     energy             old  =    -724.9854944613 Ry
     energy             new  =    -724.9870497272 Ry

     CASE: energy            _new < energy            _old

     new trust radius        =       0.0501329125 bohr
     new conv_thr            =       0.0000001127 Ry


ATOMIC_POSITIONS (angstrom)
Zn               3.2800409811        3.4146933005        3.3104037991
H                1.1095448476        2.5441862858        1.6669681056
O                1.3699645321        3.1005897936        2.4260689594
H                0.5453313850        3.3666168507        2.8688210938
H                6.0442565745        3.4643511477        3.6819373097
O                5.2158356133        3.7062791471        4.1320421277
H                5.4661374512        4.2203385234        4.9224920883
H                2.7959376348        5.6443462508        1.7169486912
O                3.4887016760        5.2682646050        2.2894842901
H                4.2687646981        5.8465289632        2.2003542239
H                2.4329525692        0.8030684763        4.0839149139
O                3.1400719920        1.4683637091        4.1630550510
H                3.8507588537        1.0546981842        4.6874815104
H                2.2361105628        3.9030217667        5.8498753265
O                2.4292353144        4.3407008702        5.0008246080
H                2.3212648978        5.3002676619        5.1377862869
H                4.2753974639        1.5150551879        1.4375795988
O                4.1368547823        2.4702504753        1.5737312323
H                4.3103601700        2.8927198007        0.7137117833



     Writing config-only to output data dir /home/ys/Research/PSID_server_room/qe/zinc_hydrate_relax/pwscf.save/ :
     XML data file
     NEW-OLD atomic charge density approx. for the potential

     negative rho (up, down):  5.450E-03 0.000E+00

     total cpu time spent up to now is     3102.7 secs

     Self-consistent Calculation

     iteration #  1     ecut=    50.00 Ry     beta= 0.70
     Davidson diagonalization with overlap
     ethr =  1.00E-06,  avg # of iterations =  6.0

     negative rho (up, down):  5.245E-03 0.000E+00

     total cpu time spent up to now is     3161.4 secs

     total energy              =    -724.98761677 Ry
     estimated scf accuracy    <       0.00200730 Ry

     iteration #  2     ecut=    50.00 Ry     beta= 0.70
     Davidson diagonalization with overlap
     ethr =  3.04E-06,  avg # of iterations =  2.0

     negative rho (up, down):  5.284E-03 0.000E+00

     total cpu time spent up to now is     3200.7 secs

     total energy              =    -724.98782738 Ry
     estimated scf accuracy    <       0.00012284 Ry

     iteration #  3     ecut=    50.00 Ry     beta= 0.70
     Davidson diagonalization with overlap
     ethr =  1.86E-07,  avg # of iterations =  3.0

     negative rho (up, down):  5.312E-03 0.000E+00

     total cpu time spent up to now is     3241.2 secs

     total energy              =    -724.98784110 Ry
     estimated scf accuracy    <       0.00003971 Ry

     iteration #  4     ecut=    50.00 Ry     beta= 0.70
     Davidson diagonalization with overlap
     ethr =  6.02E-08,  avg # of iterations =  3.0

     negative rho (up, down):  5.316E-03 0.000E+00

     total cpu time spent up to now is     3281.7 secs

     total energy              =    -724.98785139 Ry
     estimated scf accuracy    <       0.00000426 Ry

     iteration #  5     ecut=    50.00 Ry     beta= 0.70
     Davidson diagonalization with overlap
     ethr =  6.45E-09,  avg # of iterations =  3.0

     negative rho (up, down):  5.320E-03 0.000E+00

     total cpu time spent up to now is     3321.9 secs

     total energy              =    -724.98785215 Ry
     estimated scf accuracy    <       0.00000060 Ry

     iteration #  6     ecut=    50.00 Ry     beta= 0.70
     Davidson diagonalization with overlap
     ethr =  9.04E-10,  avg # of iterations =  3.0

     negative rho (up, down):  5.321E-03 0.000E+00

     total cpu time spent up to now is     3361.1 secs

     End of self-consistent calculation

          k = 0.0000 0.0000 0.0000 (314950 PWs)   bands (ev):

  -134.6415 -88.8606 -88.8470 -88.8357 -31.1994 -31.0553 -31.0234 -31.0043
   -30.9515 -30.8762 -18.9559 -18.8708 -18.8482 -18.8121 -18.8020 -18.6984
   -17.6536 -17.0932 -17.0884 -16.1273 -16.0784 -16.0372 -15.6991 -15.6850
   -15.6754 -13.7102 -13.6931 -13.1695 -13.1090 -13.0719 -12.9913 -12.9639
   -12.9038

     highest occupied level (ev):   -12.9038

!    total energy              =    -724.98785228 Ry
     estimated scf accuracy    <       0.00000002 Ry

     The total energy is the sum of the following terms:
     one-electron contribution =   -2233.68014816 Ry
     hartree contribution      =    1107.38629716 Ry
     xc contribution           =     -94.50226406 Ry
     ewald contribution        =     552.79847263 Ry
     one-center paw contrib.   =     -56.99020984 Ry

     convergence has been achieved in   6 iterations

     negative rho (up, down):  5.321E-03 0.000E+00

     Forces acting on atoms (cartesian axes, Ry/au):

     atom    1 type  1   force =     0.00326424   -0.00423773   -0.00736212
     atom    2 type  2   force =     0.00533514    0.00357864    0.00238249
     atom    3 type  3   force =    -0.00406141    0.00117970    0.00099862
     atom    4 type  2   force =    -0.00257444    0.00096030    0.00077850
     atom    5 type  2   force =     0.00091724   -0.00140989   -0.00093378
     atom    6 type  3   force =     0.00189607   -0.00053955    0.00078056
     atom    7 type  2   force =    -0.00315161   -0.00225891   -0.00161142
     atom    8 type  2   force =    -0.00025255    0.00014983    0.00024637
     atom    9 type  3   force =    -0.00442544    0.00225183   -0.00265132
     atom   10 type  2   force =    -0.00082302   -0.00282580    0.00324859
     atom   11 type  2   force =    -0.00203753    0.00333272   -0.00076138
     atom   12 type  3   force =     0.00686183   -0.00164651    0.00479021
     atom   13 type  2   force =    -0.00135458    0.00166394   -0.00004663
     atom   14 type  2   force =    -0.00086082    0.00029568   -0.00129929
     atom   15 type  3   force =    -0.00043937    0.00079368   -0.00048438
     atom   16 type  2   force =    -0.00018963   -0.00245071   -0.00079009
     atom   17 type  2   force =    -0.00009414    0.00106572    0.00324856
     atom   18 type  3   force =     0.00161976   -0.00281637   -0.00162126
     atom   19 type  2   force =     0.00037024    0.00291343    0.00108778

     Total force =     0.019282     Total SCF correction =     0.000496
     Energy error            =      8.0E-04 Ry
     Gradient error          =      7.4E-03 Ry/Bohr

     number of scf cycles    =  10
     number of bfgs steps    =   9

     energy             old  =    -724.9870497272 Ry
     energy             new  =    -724.9878522750 Ry

     CASE: energy            _new < energy            _old

     new trust radius        =       0.0438077689 bohr
     new conv_thr            =       0.0000000736 Ry


ATOMIC_POSITIONS (angstrom)
Zn               3.2880477185        3.4034731142        3.2917649128
H                1.1122910066        2.5527437582        1.6681537136
O                1.3616980872        3.0987031430        2.4308331763
H                0.5358110007        3.3701605434        2.8664589828
H                6.0475816029        3.4601608202        3.6845289178
O                5.2223231344        3.7100467952        4.1305117971
H                5.4678517276        4.2145906774        4.9233970937
H                2.7939847857        5.6514089945        1.7175605733
O                3.4857195261        5.2712223658        2.2803411629
H                4.2643305482        5.8472993674        2.2038444465
H                2.4332050108        0.8075715979        4.0902903904
O                3.1475597277        1.4603988923        4.1642532385
H                3.8495699182        1.0521682788        4.6939548685
H                2.2302518209        3.9088471036        5.8507946853
O                2.4314646010        4.3428469509        5.0038743912
H                2.3146429360        5.2970739619        5.1424687089
H                4.2813692184        1.5144932456        1.4411399934
O                4.1350125964        2.4648868166        1.5657705294
H                4.3148070325        2.8962445731        0.7135394177



     Writing config-only to output data dir /home/ys/Research/PSID_server_room/qe/zinc_hydrate_relax/pwscf.save/ :
     XML data file
     NEW-OLD atomic charge density approx. for the potential

     negative rho (up, down):  5.510E-03 0.000E+00

     total cpu time spent up to now is     3407.6 secs

     Self-consistent Calculation

     iteration #  1     ecut=    50.00 Ry     beta= 0.70
     Davidson diagonalization with overlap
     ethr =  1.00E-06,  avg # of iterations =  6.0

     negative rho (up, down):  5.230E-03 0.000E+00

     total cpu time spent up to now is     3461.5 secs

     total energy              =    -724.98814536 Ry
     estimated scf accuracy    <       0.00048256 Ry

     iteration #  2     ecut=    50.00 Ry     beta= 0.70
     Davidson diagonalization with overlap
     ethr =  7.31E-07,  avg # of iterations =  2.0

     negative rho (up, down):  5.262E-03 0.000E+00

     total cpu time spent up to now is     3501.9 secs

     total energy              =    -724.98822220 Ry
[...]

     End of self-consistent calculation

          k = 0.0000 0.0000 0.0000 (314950 PWs)   bands (ev):

  -134.5879 -88.7959 -88.7943 -88.7938 -31.1900 -31.0241 -31.0141 -31.0021
   -30.9497 -30.9390 -18.9169 -18.9147 -18.8944 -18.8794 -18.8715 -18.8633
   -17.6523 -17.0699 -17.0557 -16.0817 -16.0538 -16.0432 -15.6526 -15.6440
   -15.6355 -13.6141 -13.6029 -13.1221 -13.1149 -13.0840 -13.0001 -12.9929
   -12.9698

     highest occupied level (ev):   -12.9698

!    total energy              =    -724.99083985 Ry
     estimated scf accuracy    <          1.8E-09 Ry

     The total energy is the sum of the following terms:
     one-electron contribution =   -2237.34405458 Ry
     hartree contribution      =    1109.23887351 Ry
     xc contribution           =     -94.51531601 Ry
     ewald contribution        =     554.61744137 Ry
     one-center paw contrib.   =     -56.98778414 Ry

     convergence has been achieved in   6 iterations

     negative rho (up, down):  5.405E-03 0.000E+00

     Forces acting on atoms (cartesian axes, Ry/au):

     atom    1 type  1   force =     0.00010128   -0.00008208   -0.00087651
     atom    2 type  2   force =    -0.00068524    0.00152561    0.00191761
     atom    3 type  3   force =     0.00119519   -0.00088073   -0.00131472
     atom    4 type  2   force =     0.00005600   -0.00071857   -0.00077863
     atom    5 type  2   force =    -0.00043724    0.00063960    0.00077258
     atom    6 type  3   force =    -0.00062431   -0.00049891   -0.00085224
     atom    7 type  2   force =     0.00096100   -0.00053961   -0.00029311
     atom    8 type  2   force =     0.00186885   -0.00031169    0.00083433
     atom    9 type  3   force =    -0.00184926   -0.00114764    0.00057720
     atom   10 type  2   force =    -0.00045994    0.00118527   -0.00032642
     atom   11 type  2   force =     0.00102863   -0.00072176    0.00100924
     atom   12 type  3   force =     0.00034719    0.00213500   -0.00006781
     atom   13 type  2   force =    -0.00161449   -0.00031780   -0.00037380
     atom   14 type  2   force =    -0.00041350    0.00060447    0.00047258
     atom   15 type  3   force =     0.00041670    0.00101713   -0.00145693
     atom   16 type  2   force =     0.00010597   -0.00177797    0.00051229
     atom   17 type  2   force =    -0.00012285    0.00052858   -0.00062768
     atom   18 type  3   force =    -0.00029782   -0.00000143    0.00076385
     atom   19 type  2   force =     0.00042386   -0.00063747    0.00010815

     Total force =     0.006846     Total SCF correction =     0.000129
     Energy error            =      1.1E-04 Ry
     Gradient error          =      2.1E-03 Ry/Bohr

     number of scf cycles    =  26
     number of bfgs steps    =  25

     energy             old  =    -724.9907274909 Ry
     energy             new  =    -724.9908398458 Ry

     CASE: energy            _new < energy            _old

     new trust radius        =       0.0278592256 bohr
     new conv_thr            =       0.0000000112 Ry


ATOMIC_POSITIONS (angstrom)
Zn               3.3033172306        3.3814135628        3.2546244688
H                1.1251485020        2.6680809590        1.6433582818
O                1.3472717439        3.0884845780        2.4932108784
H                0.5154089971        3.4001427520        2.8918564556
H                6.0840500753        3.4095271072        3.6870218619
O                5.2349046158        3.7034207355        4.0604796513
H                5.4235876566        4.1271538297        4.9171409425
H                2.7462255687        5.6826928979        1.7254853122
O                3.4369453441        5.2513755627        2.2589783882
H                4.2057053256        5.8485753567        2.2787673680
H                2.4257641837        0.8862800993        4.1678165314
O                3.2015692148        1.4745050552        4.1751122885
H                3.8665056390        1.0754014467        4.7638752692
H                2.1908186638        3.8764530528        5.7903209720
O                2.4887852650        4.3209504697        4.9764980841
H                2.2846060179        5.2683156595        5.0723501928
H                4.3463864920        1.5113321460        1.4537252003
O                4.1143381654        2.4537225055        1.5392821984
H                4.3761832987        2.8965132239        0.7135766546



     Writing config-only to output data dir /home/ys/Research/PSID_server_room/qe/zinc_hydrate_relax/pwscf.save/ :
     XML data file
     NEW-OLD atomic charge density approx. for the potential

     negative rho (up, down):  5.454E-03 0.000E+00

     total cpu time spent up to now is     8067.0 secs

     Self-consistent Calculation

     iteration #  1     ecut=    50.00 Ry     beta= 0.70
     Davidson diagonalization with overlap
     ethr =  1.00E-06,  avg # of iterations =  4.0

     negative rho (up, down):  5.418E-03 0.000E+00

     total cpu time spent up to now is     8117.4 secs

     total energy              =    -724.99087550 Ry
     estimated scf accuracy    <       0.00020208 Ry

     iteration #  2     ecut=    50.00 Ry     beta= 0.70
     Davidson diagonalization with overlap
     ethr =  3.06E-07,  avg # of iterations =  2.0

     negative rho (up, down):  5.425E-03 0.000E+00

     total cpu time spent up to now is     8156.5 secs

     total energy              =    -724.99089769 Ry
     estimated scf accuracy    <       0.00001673 Ry

     iteration #  3     ecut=    50.00 Ry     beta= 0.70
     Davidson diagonalization with overlap
     ethr =  2.53E-08,  avg # of iterations =  2.0

     negative rho (up, down):  5.426E-03 0.000E+00

     total cpu time spent up to now is     8197.3 secs

     total energy              =    -724.99090001 Ry
     estimated scf accuracy    <       0.00000379 Ry

     iteration #  4     ecut=    50.00 Ry     beta= 0.70
     Davidson diagonalization with overlap
     ethr =  5.75E-09,  avg # of iterations =  2.0

     negative rho (up, down):  5.427E-03 0.000E+00

     total cpu time spent up to now is     8237.2 secs

     total energy              =    -724.99090088 Ry
     estimated scf accuracy    <       0.00000028 Ry

     iteration #  5     ecut=    50.00 Ry     beta= 0.70
     Davidson diagonalization with overlap
     ethr =  4.24E-10,  avg # of iterations =  3.0

     negative rho (up, down):  5.428E-03 0.000E+00

     total cpu time spent up to now is     8277.9 secs

     total energy              =    -724.99090095 Ry
     estimated scf accuracy    <       0.00000009 Ry

     iteration #  6     ecut=    50.00 Ry     beta= 0.70
     Davidson diagonalization with overlap
     ethr =  1.34E-10,  avg # of iterations =  3.0

     negative rho (up, down):  5.428E-03 0.000E+00

     total cpu time spent up to now is     8317.0 secs

     End of self-consistent calculation

          k = 0.0000 0.0000 0.0000 (314950 PWs)   bands (ev):

  -134.5738 -88.7823 -88.7805 -88.7799 -31.2031 -31.0323 -31.0242 -31.0160
   -30.9616 -30.9540 -18.9176 -18.9111 -18.8984 -18.8838 -18.8768 -18.8714
   -17.6745 -17.0777 -17.0672 -16.1065 -16.0665 -16.0516 -15.6411 -15.6341
   -15.6281 -13.6033 -13.5938 -13.1347 -13.1225 -13.0852 -13.0013 -13.0002
   -12.9770

     highest occupied level (ev):   -12.9770

!    total energy              =    -724.99090096 Ry
     estimated scf accuracy    <          2.6E-09 Ry

     The total energy is the sum of the following terms:
     one-electron contribution =   -2239.49771603 Ry
     hartree contribution      =    1110.31290071 Ry
     xc contribution           =     -94.52361063 Ry
     ewald contribution        =     555.70542595 Ry
     one-center paw contrib.   =     -56.98790096 Ry

     convergence has been achieved in   6 iterations

     negative rho (up, down):  5.428E-03 0.000E+00

     Forces acting on atoms (cartesian axes, Ry/au):

     atom    1 type  1   force =    -0.00019736    0.00041129   -0.00029885
     atom    2 type  2   force =    -0.00058611    0.00033648    0.00022796
     atom    3 type  3   force =     0.00041795    0.00008043   -0.00010447
     atom    4 type  2   force =    -0.00012813   -0.00057858   -0.00053676
     atom    5 type  2   force =     0.00116154    0.00003566   -0.00024648
     atom    6 type  3   force =    -0.00072784    0.00035148    0.00104888
     atom    7 type  2   force =     0.00032735   -0.00065815   -0.00092964
     atom    8 type  2   force =     0.00024623    0.00031881   -0.00029451
     atom    9 type  3   force =    -0.00017674   -0.00036120    0.00079159
     atom   10 type  2   force =    -0.00044520    0.00050764   -0.00002958
     atom   11 type  2   force =     0.00039772   -0.00062238    0.00039181
     atom   12 type  3   force =     0.00014912    0.00114734    0.00029050
     atom   13 type  2   force =    -0.00064073   -0.00048904    0.00015775
     atom   14 type  2   force =    -0.00000193    0.00072655   -0.00027253
     atom   15 type  3   force =    -0.00023930   -0.00028828    0.00002762
     atom   16 type  2   force =     0.00004667   -0.00024397    0.00043430
     atom   17 type  2   force =    -0.00054036    0.00124188   -0.00047738
     atom   18 type  3   force =     0.00019772   -0.00223202    0.00099799
     atom   19 type  2   force =     0.00073938    0.00031606   -0.00117820

     Total force =     0.004648     Total SCF correction =     0.000118
     Energy error            =      6.1E-05 Ry
     Gradient error          =      2.2E-03 Ry/Bohr

     number of scf cycles    =  27
     number of bfgs steps    =  26

     energy             old  =    -724.9908398458 Ry
     energy             new  =    -724.9909009610 Ry

     CASE: energy            _new < energy            _old

     new trust radius        =       0.0019195071 bohr
     new conv_thr            =       0.0000000100 Ry


ATOMIC_POSITIONS (angstrom)
Zn               3.3032608358        3.3815582240        3.2542436477
H                1.1247335223        2.6685670653        1.6436275613
O                1.3476978687        3.0885636148        2.4932665597
H                0.5156935231        3.3996468005        2.8914454370
H                6.0842596717        3.4097045336        3.6870995999
O                5.2345174448        3.7033533524        4.0606303941
H                5.4238078945        4.1265948341        4.9165428909
H                2.7465656239        5.6827481190        1.7254494307
O                3.4368401413        5.2510428341        2.2597529370
H                4.2049825815        5.8487693661        2.2788097800
H                2.4264325660        0.8861885504        4.1682612401
O                3.2014502053        1.4754918987        4.1753214391
H                3.8658741215        1.0752797800        4.7638471567
H                2.1908312549        3.8769549874        5.7898396010
O                2.4887686722        4.3206599199        4.9763331776
H                2.2846921051        5.2678848030        5.0724674004
H                4.3461213052        1.5118550977        1.4534122325
O                4.1144451574        2.4531666757        1.5395811273
H                4.3765475047        2.8963105434        0.7135493870



     Writing config-only to output data dir /home/ys/Research/PSID_server_room/qe/zinc_hydrate_relax/pwscf.save/ :
     XML data file
     NEW-OLD atomic charge density approx. for the potential

     negative rho (up, down):  5.429E-03 0.000E+00

     total cpu time spent up to now is     8363.4 secs

     Self-consistent Calculation

     iteration #  1     ecut=    50.00 Ry     beta= 0.70
     Davidson diagonalization with overlap
     ethr =  1.00E-06,  avg # of iterations =  2.0

     Threshold (ethr) on eigenvalues was too large:
     Diagonalizing with lowered threshold

     Davidson diagonalization with overlap
     ethr =  2.19E-09,  avg # of iterations =  4.0

     negative rho (up, down):  5.430E-03 0.000E+00

     total cpu time spent up to now is     8433.3 secs

     total energy              =    -724.99091133 Ry
     estimated scf accuracy    <       0.00000235 Ry

     iteration #  2     ecut=    50.00 Ry     beta= 0.70
     Davidson diagonalization with overlap
     ethr =  3.56E-09,  avg # of iterations =  2.0

     negative rho (up, down):  5.430E-03 0.000E+00

     total cpu time spent up to now is     8473.3 secs

     total energy              =    -724.99091176 Ry
     estimated scf accuracy    <       0.00000040 Ry

     iteration #  3     ecut=    50.00 Ry     beta= 0.70
     Davidson diagonalization with overlap
     ethr =  6.08E-10,  avg # of iterations =  3.0

     negative rho (up, down):  5.430E-03 0.000E+00

     total cpu time spent up to now is     8513.7 secs

     total energy              =    -724.99091185 Ry
     estimated scf accuracy    <       0.00000004 Ry

     iteration #  4     ecut=    50.00 Ry     beta= 0.70
     Davidson diagonalization with overlap
     ethr =  5.76E-11,  avg # of iterations =  3.0

     negative rho (up, down):  5.430E-03 0.000E+00

     total cpu time spent up to now is     8551.8 secs

     End of self-consistent calculation

          k = 0.0000 0.0000 0.0000 (314950 PWs)   bands (ev):

  -134.5733 -88.7818 -88.7800 -88.7795 -31.2064 -31.0357 -31.0274 -31.0187
   -30.9651 -30.9572 -18.9153 -18.9111 -18.8942 -18.8828 -18.8771 -18.8682
   -17.6801 -17.0799 -17.0716 -16.1115 -16.0703 -16.0573 -15.6406 -15.6338
   -15.6283 -13.6037 -13.5943 -13.1352 -13.1233 -13.0865 -13.0017 -13.0011
   -12.9779

     highest occupied level (ev):   -12.9779

!    total energy              =    -724.99091185 Ry
     estimated scf accuracy    <          1.6E-09 Ry

     The total energy is the sum of the following terms:
     one-electron contribution =   -2239.74463969 Ry
     hartree contribution      =    1110.43584307 Ry
     xc contribution           =     -94.52615978 Ry
     ewald contribution        =     555.83197129 Ry
     one-center paw contrib.   =     -56.98792674 Ry

     convergence has been achieved in   4 iterations

     negative rho (up, down):  5.430E-03 0.000E+00

     Forces acting on atoms (cartesian axes, Ry/au):

     atom    1 type  1   force =    -0.00017536    0.00040423   -0.00015285
     atom    2 type  2   force =    -0.00039611    0.00010426   -0.00014808
     atom    3 type  3   force =     0.00044902    0.00001416   -0.00022990
     atom    4 type  2   force =    -0.00044359   -0.00030165   -0.00008239
     atom    5 type  2   force =     0.00032964    0.00021975   -0.00006026
     atom    6 type  3   force =     0.00009248   -0.00051106   -0.00046051
     atom    7 type  2   force =     0.00040257    0.00000684    0.00037709
     atom    8 type  2   force =     0.00040140   -0.00012030    0.00001401
     atom    9 type  3   force =    -0.00082555    0.00013325    0.00020756
     atom   10 type  2   force =     0.00004615    0.00056246    0.00016022
     atom   11 type  2   force =     0.00016940   -0.00041560    0.00015175
     atom   12 type  3   force =     0.00000146    0.00057992    0.00054249
     atom   13 type  2   force =    -0.00027225   -0.00025236    0.00019569
     atom   14 type  2   force =    -0.00031148    0.00000264    0.00067509
     atom   15 type  3   force =     0.00004795    0.00018464   -0.00077546
     atom   16 type  2   force =     0.00005308    0.00004026    0.00031856
     atom   17 type  2   force =    -0.00009694   -0.00075639   -0.00052752
     atom   18 type  3   force =     0.00006915    0.00015194    0.00015162
     atom   19 type  2   force =     0.00045899   -0.00004702   -0.00035710

     Total force =     0.002597     Total SCF correction =     0.000070
     Energy error            =      1.1E-05 Ry
     Gradient error          =      8.3E-04 Ry/Bohr

     bfgs converged in  28 scf cycles and  27 bfgs steps
     (criteria: energy <  1.0E-04 Ry, force <  1.0E-03 Ry/Bohr)

     End of BFGS Geometry Optimization

     Final energy             =    -724.9909118527 Ry

     File /home/ys/Research/PSID_server_room/qe/zinc_hydrate_relax/pwscf.bfgs deleted, as requested
Begin final coordinates

ATOMIC_POSITIONS (angstrom)
Zn               3.3032608358        3.3815582240        3.2542436477
H                1.1247335223        2.6685670653        1.6436275613
O                1.3476978687        3.0885636148        2.4932665597
H                0.5156935231        3.3996468005        2.8914454370
H                6.0842596717        3.4097045336        3.6870995999
O                5.2345174448        3.7033533524        4.0606303941
H                5.4238078945        4.1265948341        4.9165428909
H                2.7465656239        5.6827481190        1.7254494307
O                3.4368401413        5.2510428341        2.2597529370
H                4.2049825815        5.8487693661        2.2788097800
H                2.4264325660        0.8861885504        4.1682612401
O                3.2014502053        1.4754918987        4.1753214391
H                3.8658741215        1.0752797800        4.7638471567
H                2.1908312549        3.8769549874        5.7898396010
O                2.4887686722        4.3206599199        4.9763331776
H                2.2846921051        5.2678848030        5.0724674004
H                4.3461213052        1.5118550977        1.4534122325
O                4.1144451574        2.4531666757        1.5395811273
H                4.3765475047        2.8963105434        0.7135493870
End final coordinates



     Writing all to output data dir /home/ys/Research/PSID_server_room/qe/zinc_hydrate_relax/pwscf.save/ :
     XML data file, charge density, pseudopotentials, collected wavefunctions

     init_run     :     23.68s CPU     26.26s WALL (       1 calls)
     electrons    :   6639.16s CPU   7276.75s WALL (      28 calls)
     update_pot   :    152.09s CPU    168.57s WALL (      27 calls)
     forces       :    750.19s CPU    813.28s WALL (      28 calls)

     Called by init_run:
     wfcinit      :      6.56s CPU      6.81s WALL (       1 calls)
     potinit      :      5.30s CPU      6.08s WALL (       1 calls)
     hinit0       :      1.34s CPU      1.53s WALL (       1 calls)

     Called by electrons:
     c_bands      :   2470.07s CPU   2514.26s WALL (     174 calls)
     sum_band     :   1933.40s CPU   2174.98s WALL (     174 calls)
     v_of_rho     :    782.50s CPU    884.07s WALL (     196 calls)
     newd         :   1531.34s CPU   1796.19s WALL (     196 calls)
     PAW_pot      :     15.18s CPU     15.22s WALL (     223 calls)
     mix_rho      :    133.13s CPU    150.32s WALL (     174 calls)

     Called by c_bands:
     init_us_2    :     21.30s CPU     21.42s WALL (     376 calls)
     regterg      :   2445.84s CPU   2489.87s WALL (     174 calls)

     Called by *egterg:
     rdiaghg      :      0.55s CPU      0.56s WALL (     640 calls)
     h_psi        :   1578.17s CPU   1614.88s WALL (     674 calls)
     s_psi        :    184.93s CPU    185.37s WALL (     674 calls)
     g_psi        :      2.92s CPU      2.93s WALL (     499 calls)

     Called by h_psi:
     h_psi:calbec :    294.71s CPU    295.42s WALL (     674 calls)
     vloc_psi     :   1094.64s CPU   1130.16s WALL (     674 calls)
     add_vuspsi   :    184.94s CPU    185.38s WALL (     674 calls)

     General routines
     calbec       :    468.61s CPU    469.75s WALL (     987 calls)
     fft          :    887.59s CPU    970.27s WALL (    2385 calls)
     ffts         :     40.78s CPU     43.06s WALL (     370 calls)
     fftw         :   1064.88s CPU   1103.02s WALL (   21130 calls)
     interpolate  :    101.12s CPU    113.22s WALL (     196 calls)

     Parallel routines

     PWSCF        :      2h10m CPU      2h23m WALL


   This run was terminated on:   5: 8: 5  10Feb2025            

=------------------------------------------------------------------------------=
   JOB DONE.
=------------------------------------------------------------------------------=
