
                                 *****************
                                 * O   R   C   A *
                                 *****************

                                            #,                                       
                                            ###                                      
                                            ####                                     
                                            #####                                    
                                            ######                                   
                                           ########,                                 
                                     ,,################,,,,,                         
                               ,,#################################,,                 
                          ,,##########################################,,             
                       ,#########################################, ''#####,          
                    ,#############################################,,   '####,        
                  ,##################################################,,,,####,       
                ,###########''''           ''''###############################       
              ,#####''   ,,,,##########,,,,          '''####'''          '####       
            ,##' ,,,,###########################,,,                        '##       
           ' ,,###''''                  '''############,,,                           
         ,,##''                                '''############,,,,        ,,,,,,###''
      ,#''                                            '''#######################'''  
     '                                                          ''''####''''         
             ,#######,   #######,   ,#######,      ##                                
            ,#'     '#,  ##    ##  ,#'     '#,    #''#        ,####,   ,####,        
            ##       ##  ##   ,#'  ##            #'  '#       #'       #'  '#        
            ##       ##  #######   ##           ,######,      #####,   #    #        
            '#,     ,#'  ##    ##  '#,     ,#' ,#      #,     #,   #   #,  ,#        
             '#######'   ##     ##  '#######'  #'      '#     '####' # '####'        



                #########################################################
                #                        -***-                          #
                #          Department of theory and spectroscopy        #
                #                                                       #
                #                      Frank Neese                      #
                #                                                       #
                #     Directorship, Architecture, Infrastructure        #
                #                    SHARK, DRIVERS                     #
                #        Core code/Algorithms in most modules           #
                #                                                       #
                #        Max Planck Institute fuer Kohlenforschung      #
                #                Kaiser Wilhelm Platz 1                 #
                #                 D-45470 Muelheim/Ruhr                 #
                #                      Germany                          #
                #                                                       #
                #                  All rights reserved                  #
                #                        -***-                          #
                #########################################################


                         Program Version 6.0.1  -  RELEASE   -


 With contributions from (in alphabetic order):
[Max-Planck-Institut fuer Kohlenforschung]                               
  Daniel Aravena         : Magnetic Suceptibility                        
  Michael Atanasov       : Ab Initio Ligand Field Theory (pilot matlab implementation)
  Alexander A. Auer      : GIAO ZORA, VPT2 properties, NMR spectrum      
  Ute Becker             : All parallelization in ORCA, NUMFREQ, NUMCALC 
  Giovanni Bistoni       : ED, misc. LED, open-shell LED, HFLD           
  Martin Brehm           : Molecular dynamics                            
  Dmytro Bykov           : pre 5.0 version of the SCF Hessian            
  Marcos Casanova-Páez   : Triplet and SCS-CIS(D). UHF-(DLPNO)-IP/EA/STEOM-CCSD. UHF-CVS-IP/STEOM-CCSD   
  Vijay G. Chilkuri      : MRCI spin determinant printing, contributions to CSF-ICE 
  Pauline Colinet        : FMM embedding                                 
  Dipayan Datta          : RHF DLPNO-CCSD density                        
  Achintya Kumar Dutta   : EOM-CC, STEOM-CC                              
  Nicolas Foglia         : Exact transition moments, OPA infrastructure, MCD improvements    
  Dmitry Ganyushin       : Spin-Orbit,Spin-Spin,Magnetic field MRCI      
  Miquel Garcia-Rates    : C-PCM and meta-GGA Hessian, CCSD/C-PCM, Gaussian charge scheme 
  Tiago L. C. Gouveia    : GS-ROHF, GS-ROCIS                             
  Yang Guo               : DLPNO-NEVPT2, F12-NEVPT2, CIM, IAO-localization        
  Andreas Hansen         : Spin unrestricted coupled pair/coupled cluster methods 
  Ingolf Harden          : AUTO-CI MPn and infrastructure                
  Benjamin Helmich-Paris : MC-RPA, TRAH-(SCF,CASSCF), AVAS, COSX integrals, SCF dyn. polar. 
  Lee Huntington         : MR-EOM, pCC                                   
  Robert Izsak           : Overlap fitted RIJCOSX, COSX-SCS-MP3, EOM     
  Riya Kayal             : Wick's Theorem for AUTO-CI, AUTO-CI UHF-CCSDT 
  Emily Kempfer          : AUTO-CI, RHF CISDT and CCSDT                  
  Christian Kollmar      : KDIIS, OOCD, Brueckner-CCSD(T), CCSD density, CASPT2, CASPT2-K, improved NEVPT2 
  Axel Koslowski         : Symmetry handling                             
  Simone Kossmann        : meta-GGA functionals, TD-DFT gradient, OOMP2, (MP2 Hessian; deprecated post 5.0) 
  Lucas Lang             : DCDCAS                                        
  Marvin Lechner         : AUTO-CI (C++ implementation), FIC-MRCC        
  Spencer Leger          : CASSCF response                               
  Dagmar Lenk            : GEPOL surface, SMD, ORCA-2-JSON               
  Dimitrios Liakos       : Extrapolation schemes; Compound Job, initial MDCI parallelization 
  Dimitrios Manganas     : Further ROCIS development; embedding schemes. LFT, Crystal Embedding 
  Dimitrios Pantazis     : SARC Basis sets                               
  Anastasios Papadopoulos: AUTO-CI, single reference methods and gradients 
  Taras Petrenko         : pre 6.0 DFT Hessian and TD-DFT gradient, (ASA, deprecated), ECA, 1-Electron XAS/XES, NRVS 
  Peter Pinski           : DLPNO-MP2, DLPNO-MP2 Gradient                 
  Christoph Reimann      : Effective Core Potentials                     
  Marius Retegan         : Local ZFS, SOC                                
  Christoph Riplinger    : Optimizer, TS searches, QM/MM, DLPNO-CCSD(T), (RO)-DLPNO pert. Triples 
  Michael Roemelt        : Original ROCIS implementation                 
  Masaaki Saitow         : Open-shell DLPNO-CCSD energy and density      
  Barbara Sandhoefer     : DKH picture change effects                    
  Kantharuban Sivalingam : CASSCF convergence/infrastructure, NEVPT2 and variants, FIC-MRCI 
  Bernardo de Souza      : ESD, SOC TD-DFT                               
  Georgi L. Stoychev     : AutoAux, RI-MP2 NMR, DLPNO-MP2 response, X2C  
  Van Anh Tran           : RI-MP2 g-tensors                              
  Willem Van den Heuvel  : Paramagnetic NMR                              
  Zikuan Wang            : NOTCH, Electric field optimization            
  Frank Wennmohs         : Technical directorship and infrastructure     
  Hang Xu                : AUTO-CI-Response properties                   
                                                                         
[FACCTs GmbH]                                                            
  Markus Bursch, Miquel Garcia-Rates, Christoph Riplinger, Bernardo de Souza, Georgi L. Stoychev 
                                                                 
  APM, Basis sets (HGBS, AHGBS, def-TZVP (Ac-Lr), def2-XVPD (La-Lu)), CI-OPT, improved COSX, DLPNO-Multilevel,           
  DOCKER, DRACO, updates on ESD, GOAT, IRC, LR-CPCM, MBIS, meta-GGA TD-DFT gradient, ML-optimized integration grids, 
  MM, NACMEs, nearIR, NEB, NEB-TS, NL-DFT gradient (VV10), 2- and 3-layer-ONIOM, interface openCOSMO-RS, QMMM,   
  Crystal-QMMM, SF, symmetry and pop. for TD-DFT, r2SCAN hybrids, SOLVATOR                                   
                                                                         
[Other institutions]                                                     
  V. Asgeirsson          : NEB                                           
  Christoph Bannwarth    : sTDA-DFT, sTD-DFT, PBEh-3c, B97-3c, D3        
  Sebastian Ehlert       : rSCAN, r2SCAN, r2SCAN-3c, D4, dhf basis sets  
  Marvin Friede          : D4 for Fr, Ra, Ac-Lr                          
  Lars Goerigk           : TD-DFT with DH, B97 family of functionals     
  Stefan Grimme          : VdW corrections, initial TS optimization, DFT functionals, gCP, sTDA/sTD-DF 
  Waldemar Hujo          : DFT-NL                                        
  H. Jonsson             : NEB                                           
  Holger Kruse           : gCP                                           
  Marcel Mueller         : wB97X-3c, vDZP basis set                      
  Hagen Neugebauer       : wr2SCAN                                       
  Tobias Risthaus        : range-separated hybrid DFT                    
  Lukas Wittmann         : regularized MP2, r2SCAN double-hybrids, wr2SCAN        
                                                                         
We gratefully acknowledge several colleagues who have allowed us to      
interface, adapt or use parts of their codes:                            
  Ed Valeev, F. Pavosevic, A. Kumar             : LibInt (2-el integral package), F12 methods 
  Garnet Chan, S. Sharma, J. Yang, R. Olivares  : DMRG                   
  Ulf Ekstrom                                   : XCFun DFT Library      
  Mihaly Kallay                                 : mrcc  (arbitrary order and MRCC methods)
  Frank Weinhold                                : gennbo (NPA and NBO analysis)           
  Simon Mueller                                 : openCOSMO-RS                            
  Christopher J. Cramer and Donald G. Truhlar   : smd solvation model                     
  S Lehtola, MJT Oliveira, MAL Marques          : LibXC Library                           
  Liviu Ungur et al                             : ANISO software                          


 Your calculation uses the libint2 library for the computation of 2-el integrals
 For citations please refer to: http://libint.valeyev.net

 Your ORCA version has been built with support for libXC version: 6.2.2
 For citations please refer to: https://libxc.gitlab.io

 This ORCA versions uses:
   CBLAS   interface :  Fast vector & matrix operations
   LAPACKE interface :  Fast linear algebra routines
   SCALAPACK package :  Parallel linear algebra routines
   Shared memory     :  Shared parallel matrices
   BLAS/LAPACK       :  OpenBLAS 0.3.27  USE64BITINT DYNAMIC_ARCH NO_AFFINITY SkylakeX SINGLE_THREADED
        Core in use  :  SkylakeX
   Copyright (c) 2011-2014, The OpenBLAS Project


NOTE: MaxCore=3500 MB was set to SCF,MP2,MDCI,CIPSI,MRCI and CIS
      => If you want to overwrite this, your respective input block should be placed after the MaxCore statement
Your calculation utilizes the atom-pairwise dispersion correction
with the zero-damping scheme (D30)


XCFun DFT library Copyright 2009-2010 Ulf Ekstrom and contributors.
See http://admol.org/xcfun for more information.
This is free software; see the source code for copying conditions.
There is ABSOLUTELY NO WARRANTY; not even for MERCHANTABILITY or FITNESS FOR A PARTICULAR PURPOSE.
For details see the documentation.
Scientific users of this library should cite U. Ekstrom, L. Visscher, R. Bast, A. J. Thorvaldsen and K. Ruud;
J.Chem.Theor.Comp. 2010, DOI: 10.1021/ct100117s
XCFun Version 0.99 

Warning: RI is on but no J-basis has been assigned. Assigning Def2/J (nothing to worry about!)
================================================================================

----- Orbital basis set information -----
Your calculation utilizes the basis: def2-TZVPP
   F. Weigend and R. Ahlrichs, Phys. Chem. Chem. Phys. 7, 3297 (2005).

----- AuxJ basis set information -----
Your calculation utilizes the auxiliary basis: def2/J
   F. Weigend, Phys. Chem. Chem. Phys. 8, 1057 (2006).

================================================================================
                                        WARNINGS
                       Please study these warnings very carefully!
================================================================================


WARNING: your system is open-shell and RHF/RKS was chosen
  ===> : WILL SWITCH to UHF/UKS


================================================================================
                                       INPUT FILE
================================================================================
NAME = honokiol_o2_SP_19.inp
|  1> ! wB97X-D3 def2-TZVPP TightSCF RIJCOSX SP
|  2> 
|  3> %pal
|  4> nprocs 28
|  5> end
|  6> 
|  7> %maxcore 3500
|  8> 
|  9> 
| 10> * xyz -1 2
| 11>   O          -0.03169490650674      1.75876148554265     -1.80901352164238
| 12>   O          -4.16699677913493     -1.53404874430042      1.47792878384781
| 13>   C           0.94142671395610      0.28382826408577     -0.20712817572083
| 14>   C          -0.38874018906133     -0.19155450577471      0.25567903754199
| 15>   C          -2.67313935010670     -0.91754893739751     -0.27038866154399
| 16>   C          -1.41651869987328     -0.46264135463321     -0.66224332879009
| 17>   C           3.38995731978558      0.19995263392543     -0.01056967342824
| 18>   C           2.10822226193338     -0.20622941129724      0.38050693111647
| 19>   C           1.01995900592647      1.25800026681261     -1.26679936016099
| 20>   C          -0.66828062939066     -0.39927135473022      1.61021532780526
| 21>   C          -2.92582255634115     -1.10492124897011      1.09643123123309
| 22>   C          -3.75968086619690     -1.13999089373533     -1.30250539548871
| 23>   C           4.62712741088993     -0.36641393723413      0.65842838613282
| 24>   C           3.47284234399772      1.13485277303570     -1.04856477419644
| 25>   C          -1.91896993925597     -0.85609389388476      2.02783772173803
| 26>   C           2.33385819972510      1.64546305431604     -1.65586621860198
| 27>   C          -4.37872016322826      0.16094265928037     -1.74171810706191
| 28>   C           4.73192035518438     -1.86170686645540      0.54085987784226
| 29>   C          -5.63276029822090      0.53330380225707     -1.48523238526818
| 30>   C           4.82607112355980     -2.71617911040048      1.56077309440638
| 31>   H          -1.24069924604114     -0.28775705951652     -1.72609449337243
| 32>   H           2.01530189889626     -0.96767611610127      1.16480036411507
| 33>   H           0.09756011081804     -0.18064688998711      2.36003613977664
| 34>   H          -3.30779495454441     -1.62242382536587     -2.18434676759587
| 35>   H          -4.53191825479656     -1.81299034547044     -0.90235723729614
| 36>   H           5.51732388737488      0.08732532031317      0.18766233932162
| 37>   H           4.66657431698608     -0.08716728188554      1.72714832606153
| 38>   H           4.45953992456286      1.47226093949298     -1.39043390625471
| 39>   H          -2.12158928029585     -1.00463685565211      3.09534112135796
| 40>   H           2.41372987159679      2.38263111511956     -2.46043327595452
| 41>   H          -3.70647877411884      0.82456398325325     -2.30072160433444
| 42>   H           4.70046540570245     -2.25464940588950     -0.48388959037585
| 43>   H          -0.42645909018467      1.58274166580595     -3.12125517092562
| 44>   H          -4.17847138449708     -1.59677275308823      2.43653011816661
| 45>   H          -6.02117050978590      1.49908705102669     -1.82180069082171
| 46>   H          -6.31188264849867     -0.11092357145679     -0.91547869788346
| 47>   H           4.88293491759139     -3.79695931443282      1.40208286922561
| 48>   H           4.83706191591826     -2.36345781345574      2.59822484517604
| 49>   O          -0.81362158184288      1.40323078074807     -4.10266299057334
| 50>   O          -1.64385088248261      0.40991369610020     -4.00028148757333
| 51> *
| 52> 
| 53>                          ****END OF INPUT****
================================================================================

                       ****************************
                       * Single Point Calculation *
                       ****************************

---------------------------------
CARTESIAN COORDINATES (ANGSTROEM)
---------------------------------
  O     -0.031695    1.758761   -1.809014
  O     -4.166997   -1.534049    1.477929
  C      0.941427    0.283828   -0.207128
  C     -0.388740   -0.191555    0.255679
  C     -2.673139   -0.917549   -0.270389
  C     -1.416519   -0.462641   -0.662243
  C      3.389957    0.199953   -0.010570
  C      2.108222   -0.206229    0.380507
  C      1.019959    1.258000   -1.266799
  C     -0.668281   -0.399271    1.610215
  C     -2.925823   -1.104921    1.096431
  C     -3.759681   -1.139991   -1.302505
  C      4.627127   -0.366414    0.658428
  C      3.472842    1.134853   -1.048565
  C     -1.918970   -0.856094    2.027838
  C      2.333858    1.645463   -1.655866
  C     -4.378720    0.160943   -1.741718
  C      4.731920   -1.861707    0.540860
  C     -5.632760    0.533304   -1.485232
  C      4.826071   -2.716179    1.560773
  H     -1.240699   -0.287757   -1.726094
  H      2.015302   -0.967676    1.164800
  H      0.097560   -0.180647    2.360036
  H     -3.307795   -1.622424   -2.184347
  H     -4.531918   -1.812990   -0.902357
  H      5.517324    0.087325    0.187662
  H      4.666574   -0.087167    1.727148
  H      4.459540    1.472261   -1.390434
  H     -2.121589   -1.004637    3.095341
  H      2.413730    2.382631   -2.460433
  H     -3.706479    0.824564   -2.300722
  H      4.700465   -2.254649   -0.483890
  H     -0.426459    1.582742   -3.121255
  H     -4.178471   -1.596773    2.436530
  H     -6.021171    1.499087   -1.821801
  H     -6.311883   -0.110924   -0.915479
  H      4.882935   -3.796959    1.402083
  H      4.837062   -2.363458    2.598225
  O     -0.813622    1.403231   -4.102663
  O     -1.643851    0.409914   -4.000281

----------------------------
CARTESIAN COORDINATES (A.U.)
----------------------------
  NO LB      ZA    FRAG     MASS         X           Y           Z
   0 O     8.0000    0    15.999   -0.059895    3.323578   -3.418540
   1 O     8.0000    0    15.999   -7.874483   -2.898932    2.792881
   2 C     6.0000    0    12.011    1.779039    0.536358   -0.391416
   3 C     6.0000    0    12.011   -0.734612   -0.361986    0.483163
   4 C     6.0000    0    12.011   -5.051501   -1.733916   -0.510961
   5 C     6.0000    0    12.011   -2.676832   -0.874265   -1.251459
   6 C     6.0000    0    12.011    6.406091    0.377856   -0.019974
   7 C     6.0000    0    12.011    3.983963   -0.389717    0.719054
   8 C     6.0000    0    12.011    1.927443    2.377276   -2.393904
   9 C     6.0000    0    12.011   -1.262867   -0.754514    3.042866
  10 C     6.0000    0    12.011   -5.529003   -2.087999    2.071955
  11 C     6.0000    0    12.011   -7.104767   -2.154271   -2.461378
  12 C     6.0000    0    12.011    8.744004   -0.692422    1.244249
  13 C     6.0000    0    12.011    6.562721    2.144561   -1.981500
  14 C     6.0000    0    12.011   -3.626328   -1.617783    3.832058
  15 C     6.0000    0    12.011    4.410353    3.109475   -3.129134
  16 C     6.0000    0    12.011   -8.274582    0.304138   -3.291370
  17 C     6.0000    0    12.011    8.942034   -3.518116    1.022077
  18 C     6.0000    0    12.011  -10.644374    1.007798   -2.806682
  19 C     6.0000    0    12.011    9.119953   -5.132835    2.949434
  20 H     1.0000    0     1.008   -2.344582   -0.543782   -3.261846
  21 H     1.0000    0     1.008    3.808369   -1.828643    2.201154
  22 H     1.0000    0     1.008    0.184362   -0.341373    4.459822
  23 H     1.0000    0     1.008   -6.250827   -3.065937   -4.127817
  24 H     1.0000    0     1.008   -8.564084   -3.426055   -1.705208
  25 H     1.0000    0     1.008   10.426231    0.165021    0.354630
  26 H     1.0000    0     1.008    8.818547   -0.164722    3.263837
  27 H     1.0000    0     1.008    8.427309    2.782170   -2.627539
  28 H     1.0000    0     1.008   -4.009223   -1.898489    5.849347
  29 H     1.0000    0     1.008    4.561288    4.502520   -4.649545
  30 H     1.0000    0     1.008   -7.004230    1.558200   -4.347734
  31 H     1.0000    0     1.008    8.882592   -4.260670   -0.914419
  32 H     1.0000    0     1.008   -0.805891    2.990948   -5.898317
  33 H     1.0000    0     1.008   -7.896167   -3.017463    4.604375
  34 H     1.0000    0     1.008  -11.378363    2.832864   -3.442704
  35 H     1.0000    0     1.008  -11.927730   -0.209615   -1.730004
  36 H     1.0000    0     1.008    9.227410   -7.175213    2.649553
  37 H     1.0000    0     1.008    9.140722   -4.466288    4.909933
  38 O     8.0000    0    15.999   -1.537522    2.651722   -7.752909
  39 O     8.0000    0    15.999   -3.106428    0.774625   -7.559436

--------------------------------
INTERNAL COORDINATES (ANGSTROEM)
--------------------------------
 O      0   0   0     0.000000000000     0.00000000     0.00000000
 O      1   0   0     6.224733769981     0.00000000     0.00000000
 C      1   2   0     2.385043051487    65.74919496     0.00000000
 C      3   1   2     1.486446529281    92.39431531   359.41940445
 C      2   1   3     2.380818329910    19.68128781   268.02257280
 C      5   2   1     1.392690363179   149.02022442    49.09046180
 C      3   1   2     2.457838988592   118.76908908   179.92151702
 C      3   1   2     1.395307634455   147.27205917   180.87250737
 C      1   2   3     1.284808914443    96.58952453     1.07157556
 C      4   3   1     1.398591330146   121.86373495   221.17433396
 C      2   1   3     1.367554109067    23.61779147     1.05365173
 C      5   2   1     1.515030640817    90.70202186   232.30500473
 C      7   3   1     1.516218760914   149.41784351   179.19231155
 C      7   3   1     1.399407741356    88.67563834   358.49586029
 C     11   2   1     1.393981813269   121.67874817   139.62194777
 C     14   7   3     1.388100423107   121.44389622     0.30661153
 C     12   5   2     1.506169169329   111.50626380   100.86890201
 C     13   7   3     1.503564052342   113.19440925    58.84374696
 C     17  12   5     1.333062041488   124.87569157   247.43022592
 C     18  13   7     1.333870365583   125.60564621   237.18900070
 H      6   5   2     1.092371867730   118.13426174   182.90314329
 H      8   3   1     1.097064932977   118.29595506   180.14746324
 H     10   4   3     1.093864683593   119.62142579     1.83065891
 H     12   5   2     1.102082853615   108.38003646   219.93109036
 H     12   5   2     1.099726054475   110.21699984   338.08265490
 H     13   7   3     1.104513355019   108.42840693   179.41669308
 H     13   7   3     1.105304059038   111.18451680   295.85085321
 H     14   7   3     1.097401881600   119.32280702   180.30185143
 H     15  11   2     1.096669100985   119.52257644   359.88935921
 H     16  14   7     1.094131794444   120.64092593   179.45528130
 H     17  12   5     1.097627740551   114.77179684    66.66185623
 H     18  13   7     1.097954792219   115.27099918    55.59733694
 H      1   2   3     1.381593241069   104.14185354   130.60006307
 H      2   1   3     0.960719774963   124.70509223    50.99003611
 H     19  17  12     1.094019195606   121.42481678   179.23027442
 H     19  17  12     1.095835452966   121.25286822     0.12569433
 H     20  18  13     1.093847305645   121.71433317   178.98371434
 H     20  18  13     1.095828109701   121.22560749   359.76340905
 O     33   1   2     1.070177677429   174.72126065     9.00489469
 O     39  33   1     1.298630622791   106.69583046   336.52888639

---------------------------
INTERNAL COORDINATES (A.U.)
---------------------------
 O      0   0   0     0.000000000000     0.00000000     0.00000000
 O      1   0   0    11.763042081835     0.00000000     0.00000000
 C      1   2   0     4.507078184923    65.74919496     0.00000000
 C      3   1   2     2.808976853059    92.39431531   359.41940445
 C      2   1   3     4.499094618150    19.68128781   268.02257280
 C      5   2   1     2.631803375760   149.02022442    49.09046180
 C      3   1   2     4.644642569713   118.76908908   179.92151702
 C      3   1   2     2.636749301690   147.27205917   180.87250737
 C      1   2   3     2.427936982717    96.58952453     1.07157556
 C      4   3   1     2.642954587253   121.86373495   221.17433396
 C      2   1   3     2.584302739456    23.61779147     1.05365173
 C      5   2   1     2.862992995644    90.70202186   232.30500473
 C      7   3   1     2.865238217240   149.41784351   179.19231155
 C      7   3   1     2.644497380851    88.67563834   358.49586029
 C     11   2   1     2.634243862745   121.67874817   139.62194777
 C     14   7   3     2.623129646053   121.44389622     0.30661153
 C     12   5   2     2.846247241388   111.50626380   100.86890201
 C     13   7   3     2.841324283735   113.19440925    58.84374696
 C     17  12   5     2.519122177938   124.87569157   247.43022592
 C     18  13   7     2.520649689105   125.60564621   237.18900070
 H      6   5   2     2.064283666409   118.13426174   182.90314329
 H      8   3   1     2.073152274456   118.29595506   180.14746324
 H     10   4   3     2.067104679560   119.62142579     1.83065891
 H     12   5   2     2.082634770222   108.38003646   219.93109036
 H     12   5   2     2.078181065296   110.21699984   338.08265490
 H     13   7   3     2.087227752245   108.42840693   179.41669308
 H     13   7   3     2.088721966293   111.18451680   295.85085321
 H     14   7   3     2.073789015074   119.32280702   180.30185143
 H     15  11   2     2.072404260394   119.52257644   359.88935921
 H     16  14   7     2.067609445915   120.64092593   179.45528130
 H     17  12   5     2.074215826635   114.77179684    66.66185623
 H     18  13   7     2.074833864721   115.27099918    55.59733694
 H      1   2   3     2.610832854098   104.14185354   130.60006307
 H      2   1   3     1.815497266122   124.70509223    50.99003611
 H     19  17  12     2.067396664949   121.42481678   179.23027442
 H     19  17  12     2.070828893948   121.25286822     0.12569433
 H     20  18  13     2.067071839998   121.71433317   178.98371434
 H     20  18  13     2.070815017187   121.22560749   359.76340905
 O     33   1   2     2.022342724976   174.72126065     9.00489469
 O     39  33   1     2.454056226199   106.69583046   336.52888639

---------------------
BASIS SET INFORMATION
---------------------
There are 3 groups of distinct atoms

 Group   1 Type O   : 11s6p2d1f contracted to 5s3p2d1f pattern {62111/411/11/1}
 Group   2 Type C   : 11s6p2d1f contracted to 5s3p2d1f pattern {62111/411/11/1}
 Group   3 Type H   : 5s2p1d contracted to 3s2p1d pattern {311/11/1}

Atom   0O    basis set group =>   1
Atom   1O    basis set group =>   1
Atom   2C    basis set group =>   2
Atom   3C    basis set group =>   2
Atom   4C    basis set group =>   2
Atom   5C    basis set group =>   2
Atom   6C    basis set group =>   2
Atom   7C    basis set group =>   2
Atom   8C    basis set group =>   2
Atom   9C    basis set group =>   2
Atom  10C    basis set group =>   2
Atom  11C    basis set group =>   2
Atom  12C    basis set group =>   2
Atom  13C    basis set group =>   2
Atom  14C    basis set group =>   2
Atom  15C    basis set group =>   2
Atom  16C    basis set group =>   2
Atom  17C    basis set group =>   2
Atom  18C    basis set group =>   2
Atom  19C    basis set group =>   2
Atom  20H    basis set group =>   3
Atom  21H    basis set group =>   3
Atom  22H    basis set group =>   3
Atom  23H    basis set group =>   3
Atom  24H    basis set group =>   3
Atom  25H    basis set group =>   3
Atom  26H    basis set group =>   3
Atom  27H    basis set group =>   3
Atom  28H    basis set group =>   3
Atom  29H    basis set group =>   3
Atom  30H    basis set group =>   3
Atom  31H    basis set group =>   3
Atom  32H    basis set group =>   3
Atom  33H    basis set group =>   3
Atom  34H    basis set group =>   3
Atom  35H    basis set group =>   3
Atom  36H    basis set group =>   3
Atom  37H    basis set group =>   3
Atom  38O    basis set group =>   1
Atom  39O    basis set group =>   1
---------------------------------
AUXILIARY/J BASIS SET INFORMATION
---------------------------------
There are 3 groups of distinct atoms

 Group   1 Type O   : 12s5p4d2f1g contracted to 6s4p3d1f1g pattern {711111/2111/211/2/1}
 Group   2 Type C   : 12s5p4d2f1g contracted to 6s4p3d1f1g pattern {711111/2111/211/2/1}
 Group   3 Type H   : 5s2p1d contracted to 3s1p1d pattern {311/2/1}

Atom   0O    basis set group =>   1
Atom   1O    basis set group =>   1
Atom   2C    basis set group =>   2
Atom   3C    basis set group =>   2
Atom   4C    basis set group =>   2
Atom   5C    basis set group =>   2
Atom   6C    basis set group =>   2
Atom   7C    basis set group =>   2
Atom   8C    basis set group =>   2
Atom   9C    basis set group =>   2
Atom  10C    basis set group =>   2
Atom  11C    basis set group =>   2
Atom  12C    basis set group =>   2
Atom  13C    basis set group =>   2
Atom  14C    basis set group =>   2
Atom  15C    basis set group =>   2
Atom  16C    basis set group =>   2
Atom  17C    basis set group =>   2
Atom  18C    basis set group =>   2
Atom  19C    basis set group =>   2
Atom  20H    basis set group =>   3
Atom  21H    basis set group =>   3
Atom  22H    basis set group =>   3
Atom  23H    basis set group =>   3
Atom  24H    basis set group =>   3
Atom  25H    basis set group =>   3
Atom  26H    basis set group =>   3
Atom  27H    basis set group =>   3
Atom  28H    basis set group =>   3
Atom  29H    basis set group =>   3
Atom  30H    basis set group =>   3
Atom  31H    basis set group =>   3
Atom  32H    basis set group =>   3
Atom  33H    basis set group =>   3
Atom  34H    basis set group =>   3
Atom  35H    basis set group =>   3
Atom  36H    basis set group =>   3
Atom  37H    basis set group =>   3
Atom  38O    basis set group =>   1
Atom  39O    basis set group =>   1


           ************************************************************
           *        Program running with 28 parallel MPI-processes    *
           *              working on a common directory               *
           ************************************************************
------------------------------------------------------------------------------
                             ORCA STARTUP CALCULATIONS
                           -- RI-GTO INTEGRALS CHOSEN --
------------------------------------------------------------------------------
------------------------------------------------------------------------------
                   ___                                                        
                  /   \      - P O W E R E D   B Y -                         
                 /     \                                                     
                 |  |  |   _    _      __       _____    __    __             
                 |  |  |  | |  | |    /  \     |  _  \  |  |  /  |          
                  \  \/   | |  | |   /    \    | | | |  |  | /  /          
                 / \  \   | |__| |  /  /\  \   | |_| |  |  |/  /          
                |  |  |   |  __  | /  /__\  \  |    /   |      \           
                |  |  |   | |  | | |   __   |  |    \   |  |\   \          
                \     /   | |  | | |  |  |  |  | |\  \  |  | \   \       
                 \___/    |_|  |_| |__|  |__|  |_| \__\ |__|  \__/        
                                                                              
                      - O R C A' S   B I G   F R I E N D -                    
                                      &                                       
                       - I N T E G R A L  F E E D E R -                       
                                                                              
 v1 FN, 2020, v2 2021, v3 2022-2024                                           
------------------------------------------------------------------------------


----------------------
SHARK INTEGRAL PACKAGE
----------------------

Number of atoms                             ...     40
Number of basis functions                   ...    934
Number of shells                            ...    350
Maximum angular momentum                    ...      3
Integral batch strategy                     ... SHARK/LIBINT Hybrid
RI-J (if used) integral strategy            ... SPLIT-RIJ (Revised 2003 algorithm where possible)
Printlevel                                  ...      1
Contraction scheme used                     ... SEGMENTED contraction
Prescreening option                         ... SCHWARTZ
   Thresh                                   ... 2.500e-11
   Tcut                                     ... 2.500e-12
   Tpresel                                  ... 2.500e-12 
Coulomb Range Separation                    ... NOT USED
Exchange Range Separation                   ... Long Range
   Mu parameter                             ... 2.500e-01
   Scaling (regular/separated)              ... 1.957e-01 8.043e-01
Multipole approximations                    ... NOT USED
Finite Nucleus Model                        ... NOT USED
CABS basis                                  ... NOT available
Auxiliary Coulomb fitting basis             ... AVAILABLE
   # of basis functions in Aux-J            ...   1276
   # of shells in Aux-J                     ...    420
   Maximum angular momentum in Aux-J        ...      4
Auxiliary J/K fitting basis                 ... NOT available
Auxiliary Correlation fitting basis         ... NOT available
Auxiliary 'external' fitting basis          ... NOT available

Checking pre-screening integrals            ... done (  0.0 sec) Dimension = 350
Check shell pair data                       ... done (  0.0 sec)
Shell pair information
Shell pair cut-off parameter TPreSel        ...   2.5e-12
Total number of shell pairs                 ...     61425
Shell pairs after pre-screening             ...     39212
Total number of primitive shell pairs       ...    171358
Primitive shell pairs kept                  ...     74979
          la=0 lb=0:   8698 shell pairs
          la=1 lb=0:  11246 shell pairs
          la=1 lb=1:   3707 shell pairs
          la=2 lb=0:   6039 shell pairs
          la=2 lb=1:   3988 shell pairs
          la=2 lb=2:   1069 shell pairs
          la=3 lb=0:   2146 shell pairs
          la=3 lb=1:   1429 shell pairs
          la=3 lb=2:    745 shell pairs
          la=3 lb=3:    145 shell pairs

Calculating one electron integrals          ... done (  0.0 sec)
Calculating RI/J V-Matrix + Cholesky decomp.... done (  0.1 sec)
Calculating Nuclear repulsion               ... done (  0.0 sec) ENN=   1683.737627724603 Eh

Diagonalization of the overlap matrix:
Smallest eigenvalue                        ... 6.013e-06
Time for diagonalization                   ...    0.144 sec
Threshold for overlap eigenvalues          ... 1.000e-07
Number of eigenvalues below threshold      ... 0
Time for construction of square roots      ...    0.070 sec
Total time needed                          ...    0.225 sec

-------------------
DFT GRID GENERATION
-------------------

General Integration Accuracy     IntAcc      ... 4.388
Radial Grid Type                 RadialGrid  ... OptM3 with GC (2021)
Angular Grid (max. ang.)         AngularGrid ... 4 (Lebedev-302)
Angular grid pruning method      GridPruning ... 4 (adaptive)
Weight generation scheme         WeightScheme... mBecke (2022)
Basis function cutoff            BFCut       ... 1.0000e-11
Integration weight cutoff        WCut        ... 1.0000e-14
Partially contracted basis set               ... off
Rotationally invariant grid construction     ... off
Angular grids for H and He will be reduced by one unit

Total number of grid points                  ...   189217
Total number of batches                      ...     2976
Average number of points per batch           ...       63
Average number of grid points per atom       ...     4730

--------------------
COSX GRID GENERATION
--------------------

GRIDX 1
-------
General Integration Accuracy     IntAcc      ... 3.816
Radial Grid Type                 RadialGrid  ... OptM3 with GC (2021)
Angular Grid (max. ang.)         AngularGrid ... 1 (Lebedev-50)
Angular grid pruning method      GridPruning ... 4 (adaptive)
Weight generation scheme         WeightScheme... mBecke (2022)
Basis function cutoff            BFCut       ... 1.0000e-11
Integration weight cutoff        WCut        ... 1.0000e-14
Partially contracted basis set               ... on
Rotationally invariant grid construction     ... off
Angular grids for H and He will be reduced by one unit

Total number of grid points                  ...    24010
Total number of batches                      ...      212
Average number of points per batch           ...      113
Average number of grid points per atom       ...      600
UseSFitting                                  ... on

GRIDX 2
-------
General Integration Accuracy     IntAcc      ... 4.020
Radial Grid Type                 RadialGrid  ... OptM3 with GC (2021)
Angular Grid (max. ang.)         AngularGrid ... 2 (Lebedev-110)
Angular grid pruning method      GridPruning ... 4 (adaptive)
Weight generation scheme         WeightScheme... mBecke (2022)
Basis function cutoff            BFCut       ... 1.0000e-11
Integration weight cutoff        WCut        ... 1.0000e-14
Partially contracted basis set               ... on
Rotationally invariant grid construction     ... off
Angular grids for H and He will be reduced by one unit

Total number of grid points                  ...    52088
Total number of batches                      ...      428
Average number of points per batch           ...      121
Average number of grid points per atom       ...     1302
UseSFitting                                  ... on

GRIDX 3
-------
General Integration Accuracy     IntAcc      ... 4.338
Radial Grid Type                 RadialGrid  ... OptM3 with GC (2021)
Angular Grid (max. ang.)         AngularGrid ... 3 (Lebedev-194)
Angular grid pruning method      GridPruning ... 4 (adaptive)
Weight generation scheme         WeightScheme... mBecke (2022)
Basis function cutoff            BFCut       ... 1.0000e-11
Integration weight cutoff        WCut        ... 1.0000e-14
Partially contracted basis set               ... on
Rotationally invariant grid construction     ... off
Angular grids for H and He will be reduced by one unit

Total number of grid points                  ...   113976
Total number of batches                      ...      916
Average number of points per batch           ...      124
Average number of grid points per atom       ...     2849
UseSFitting                                  ... on
Initializing property integral containers    ... done (  0.0 sec)

SHARK setup successfully completed in   3.3 seconds

Maximum memory used throughout the entire STARTUP-calculation: 84.3 MB


           ************************************************************
           *        Program running with 28 parallel MPI-processes    *
           *              working on a common directory               *
           ************************************************************
-------------------------------------------------------------------------------
                                 ORCA GUESS
                   Start orbitals & Density for SCF / CASSCF
-------------------------------------------------------------------------------

------------
SCF SETTINGS
------------
Hamiltonian:
 Density Functional     Method          .... DFT(GTOs)
 Exchange Functional    Exchange        .... WB97X-D3
 Correlation Functional Correlation     .... WB97X-D3
 Gradients option       PostSCFGGA      .... off
 Hybrid DFT is turned on
   Fraction HF Exchange ScalHFX         ....  0.195728
   Scaling of DF-GGA-X  ScalDFX         ....  0.000000
   Scaling of DF-GGA-C  ScalDFC         ....  1.000000
   Scaling of DF-LDA-C  ScalLDAC        ....  1.000000
   Perturbative correction              ....  0.000000
 Long-range corrected/Screened/Range-Separated Hybrid DFT is turned on
   Amount of maximum screened exact exchange              ....  0.804272
   Range separation parameter mu (erf(mu*r12)/r12)        ....  0.250000
 RI-approximation to the Coulomb term is turned on
   Number of AuxJ basis functions       .... 1276
   RIJ-COSX (HFX calculated with COS-X)).... on


General Settings:
 Integral files         IntName         .... honokiol_o2_SP_19
 Hartree-Fock type      HFTyp           .... UHF
 Total Charge           Charge          ....   -1
 Multiplicity           Mult            ....    2
 Number of Electrons    NEL             ....  159
 Basis Dimension        Dim             ....  934
 Nuclear Repulsion      ENuc            ....   1683.7376277246 Eh

Convergence Acceleration:
 AO-DIIS                CNVDIIS         .... on
   Start iteration      DIISMaxIt       ....    12
   Startup error        DIISStart       ....  0.200000
   # of expansion vecs  DIISMaxEq       ....     5
   Bias factor          DIISBfac        ....   1.050
   Max. coefficient     DIISMaxC        ....  10.000
 MO-DIIS                CNVKDIIS        .... off
 Trust-Rad. Augm. Hess. CNVTRAH         .... auto
   Auto Start mean grad. ratio tolernc. ....  1.125000
   Auto Start start iteration           ....    50
   Auto Start num. interpolation iter.  ....    10
   Max. Number of Micro iterations      ....    24
   Max. Number of Macro iterations      .... Maxiter - #DIIS iter
   Number of Davidson start vectors     ....     2
   Converg. threshold    (grad. norm)   ....   1.000e-05
   Grad. Scal. Fac. for Micro threshold ....   0.100
   Minimum threshold for Micro iter.    ....   1.000e-02
   NR start threshold (gradient norm)   ....   1.000e-04
   Initial trust radius                 ....   0.400
   Minimum AH scaling param. (alpha)    ....   1.000
   Maximum AH scaling param. (alpha)    .... 1000.000
   Quad. conv. algorithm                .... NR
   White noise on init. David. guess    .... on
   Maximum white noise                  ....   0.010
   Pseudo random numbers                .... off
   Inactive MOs                         .... canonical
   Orbital update algorithm             .... Taylor
   Preconditioner                       .... Diag
   Full preconditioner red. dimension   ....   250
 SOSCF                  CNVSOSCF        .... on
   Start iteration      SOSCFMaxIt      ....   150
   Startup grad/error   SOSCFStart      ....  0.003300
   Hessian update       SOSCFHessUp     .... L-BFGS
 Level Shifting         CNVShift        .... on
   Level shift para.    LevelShift      ....    0.2500
   Turn off err/grad.   ShiftErr        ....    0.0010
 Zerner damping         CNVZerner       .... off
 Static damping         CNVDamp         .... on
   Fraction old density DampFac         ....    0.7000
   Max. Damping (<1)    DampMax         ....    0.9800
   Min. Damping (>=0)   DampMin         ....    0.0000
   Turn off err/grad.   DampErr         ....    0.1000

SCF Procedure:
 Maximum # iterations   MaxIter         ....   125
 SCF integral mode      SCFMode         .... Direct
   Integral package                     .... SHARK and LIBINT hybrid scheme
 Reset frequency        DirectResetFreq ....    20
 Integral Threshold     Thresh          ....  2.500e-11 Eh
 Primitive CutOff       TCut            ....  2.500e-12 Eh

Convergence Tolerance:
 Convergence Check Mode ConvCheckMode   .... Total+1el-Energy
 Convergence forced     ConvForced      .... 0
 Energy Change          TolE            ....  1.000e-08 Eh
 1-El. energy change                    ....  1.000e-05 Eh
 Orbital Gradient       TolG            ....  1.000e-05
 Orbital Rotation angle TolX            ....  1.000e-05
 DIIS Error             TolErr          ....  5.000e-07

------------------------------
INITIAL GUESS: MODEL POTENTIAL
------------------------------
Loading Hartree-Fock densities                     ... done
Calculating cut-offs                               ... done
Initializing the effective Hamiltonian             ... done
Setting up the integral package (SHARK)            ... done
Starting the Coulomb interaction                   ... done (   0.2 sec)
Making the grid                                    ... done (   0.3 sec)
Mapping shells                                     ... done
Starting the XC term evaluation                    ... done (   0.1 sec)
  promolecular density results
     # of electrons  =    157.989567626
     EX              =   -129.856347191
     EC              =     -5.259333367
     EX+EC           =   -135.115680558
Transforming the Hamiltonian                       ... done (   0.1 sec)
Diagonalizing the Hamiltonian                      ... done (   0.2 sec)
Back transforming the eigenvectors                 ... done (   0.1 sec)
Now organizing SCF variables                       ... done
                      ------------------
                      INITIAL GUESS DONE (   1.1 sec)
                      ------------------
             **** ENERGY FILE WAS UPDATED (honokiol_o2_SP_19.en.tmp) ****
Finished Guess after   2.2 sec
Maximum memory used throughout the entire GUESS-calculation: 73.3 MB


           ************************************************************
           *        Program running with 28 parallel MPI-processes    *
           *              working on a common directory               *
           ************************************************************

-------------------------------------------------------------------------------------------
                                      ORCA LEAN-SCF
                              memory conserving SCF solver
-------------------------------------------------------------------------------------------

----------------------------------------D-I-I-S--------------------------------------------
Iteration    Energy (Eh)           Delta-E    RMSDP     MaxDP     DIISErr   Damp  Time(sec)
-------------------------------------------------------------------------------------------
               ***  Starting incremental Fock matrix formation  ***
    1    -997.0588107856231090     0.00e+00  5.86e-04  9.50e-02  1.35e-01  0.700   9.0
    2    -997.2877348290883219    -2.29e-01  6.02e-04  1.08e-01  6.64e-02  0.700   5.8
                               ***Turning on AO-DIIS***
    3    -997.4088814704302877    -1.21e-01  2.71e-04  3.36e-02  2.85e-02  0.700   5.1
    4    -997.4815317639584009    -7.27e-02  5.53e-04  6.10e-02  2.02e-02  0.000   4.9
                              *** Initializing SOSCF ***
---------------------------------------S-O-S-C-F--------------------------------------
Iteration    Energy (Eh)           Delta-E    RMSDP     MaxDP     MaxGrad    Time(sec)
--------------------------------------------------------------------------------------
    5    -997.6381824221641637    -1.57e-01  6.43e-05  4.79e-03  2.62e-03     5.8
               *** Restarting incremental Fock matrix formation ***
    6    -997.6386124367911634    -4.30e-04  9.50e-05  1.34e-02  2.22e-03     8.5
    7    -997.6387216583068493    -1.09e-04  4.10e-05  3.16e-03  2.29e-03     6.9
    8    -997.6388309271294474    -1.09e-04  2.13e-05  1.64e-03  6.31e-04     6.6
    9    -997.6388396883005498    -8.76e-06  1.58e-05  1.18e-03  7.04e-04     6.2
   10    -997.6388440108855775    -4.32e-06  6.60e-06  4.05e-04  1.94e-04     6.1
   11    -997.6388447640886170    -7.53e-07  4.23e-06  2.68e-04  9.03e-05     5.8
   12    -997.6388449893436245    -2.25e-07  1.34e-06  1.27e-04  5.60e-05     5.5
   13    -997.6388450635720346    -7.42e-08  1.82e-06  1.32e-04  5.11e-05     5.1
   14    -997.6388451177128900    -5.41e-08  1.83e-06  1.99e-04  4.03e-05     5.1
   15    -997.6388451816080760    -6.39e-08  1.54e-06  1.44e-04  2.27e-05     4.9
   16    -997.6388452466678700    -6.51e-08  1.37e-06  1.37e-04  1.31e-05     4.9
   17    -997.6388452818271162    -3.52e-08  8.04e-07  1.07e-04  5.05e-06     4.9
   18    -997.6388453014671995    -1.96e-08  6.83e-07  5.39e-05  3.34e-06     4.5
   19    -997.6388452958633479     5.60e-09  9.70e-07  1.01e-04  1.36e-06     4.4
                 **** Energy Check signals convergence ****

               *****************************************************
               *                     SUCCESS                       *
               *           SCF CONVERGED AFTER  19 CYCLES          *
               *****************************************************

Recomputing exchange energy using gridx3       ... done (   13.069 sec)
Old exchange energy                            :    -43.005263878 Eh
New exchange energy                            :    -43.005246893 Eh
Exchange energy change after final integration :      0.000016984 Eh
Total energy after final integration           :   -997.638828312 Eh
             **** ENERGY FILE WAS UPDATED (honokiol_o2_SP_19.en.tmp) ****

----------------
TOTAL SCF ENERGY
----------------

Total Energy       :       -997.63882831160424 Eh          -27147.13265 eV

Components:
Nuclear Repulsion  :       1683.73762772460282 Eh           45816.83013 eV
Electronic Energy  :      -2681.37647302046616 Eh          -72963.96325 eV
One Electron Energy:      -4722.63427461006722 Eh         -128509.41190 eV
Two Electron Energy:       2041.25780158960106 Eh           55545.44866 eV

Virial components:
Potential Energy   :      -1990.54409237021309 Eh          -54165.45847 eV
Kinetic Energy     :        992.90526405860874 Eh           27018.32582 eV
Virial Ratio       :          2.00476738760921

DFT components:
N(Alpha)           :       79.999986948590 electrons
N(Beta)            :       78.999991365053 electrons
N(Total)           :      158.999978313643 electrons
E(XC)              :      -95.732489534611 Eh       

---------------
SCF CONVERGENCE
---------------

  Last Energy change         ...   -5.6039e-09  Tolerance :   1.0000e-08
  Last MAX-Density change    ...    1.0077e-04  Tolerance :   1.0000e-07
  Last RMS-Density change    ...    9.7001e-07  Tolerance :   5.0000e-09
  Last DIIS Error            ...    2.6170e-03  Tolerance :   5.0000e-07
  Last Orbital Gradient      ...    1.3619e-06  Tolerance :   1.0000e-05
  Last Orbital Rotation      ...    4.0980e-06  Tolerance :   1.0000e-05


----------------------
UHF SPIN CONTAMINATION
----------------------

Warning: in a DFT calculation there is little theoretical justification to 
         calculate <S**2> as in Hartree-Fock theory. We will do it anyways
         but you should keep in mind that the values have only limited relevance

Expectation value of <S**2>     :     0.754601
Ideal value S*(S+1) for S=0.5   :     0.750000
Deviation                       :     0.004601

----------------
ORBITAL ENERGIES
----------------
                 SPIN UP ORBITALS
  NO   OCC          E(Eh)            E(eV) 
   0   1.0000     -19.165261      -521.5133 
   1   1.0000     -19.158416      -521.3270 
   2   1.0000     -19.136452      -520.7293 
   3   1.0000     -19.031241      -517.8664 
   4   1.0000     -10.231370      -278.4097 
   5   1.0000     -10.195130      -277.4236 
   6   1.0000     -10.193159      -277.3700 
   7   1.0000     -10.184690      -277.1395 
   8   1.0000     -10.183223      -277.0996 
   9   1.0000     -10.177085      -276.9326 
  10   1.0000     -10.173922      -276.8465 
  11   1.0000     -10.173696      -276.8403 
  12   1.0000     -10.172226      -276.8004 
  13   1.0000     -10.169669      -276.7308 
  14   1.0000     -10.166127      -276.6344 
  15   1.0000     -10.164989      -276.6034 
  16   1.0000     -10.155511      -276.3455 
  17   1.0000     -10.154360      -276.3142 
  18   1.0000     -10.153221      -276.2832 
  19   1.0000     -10.152662      -276.2680 
  20   1.0000     -10.146138      -276.0905 
  21   1.0000     -10.133483      -275.7461 
  22   1.0000      -1.142654       -31.0932 
  23   1.0000      -1.082552       -29.4577 
  24   1.0000      -0.966006       -26.2864 
  25   1.0000      -0.864629       -23.5278 
  26   1.0000      -0.844316       -22.9750 
  27   1.0000      -0.813601       -22.1392 
  28   1.0000      -0.805810       -21.9272 
  29   1.0000      -0.785742       -21.3811 
  30   1.0000      -0.765826       -20.8392 
  31   1.0000      -0.753990       -20.5171 
  32   1.0000      -0.732082       -19.9210 
  33   1.0000      -0.711442       -19.3593 
  34   1.0000      -0.682710       -18.5775 
  35   1.0000      -0.663486       -18.0544 
  36   1.0000      -0.627840       -17.0844 
  37   1.0000      -0.604281       -16.4433 
  38   1.0000      -0.575393       -15.6572 
  39   1.0000      -0.566165       -15.4061 
  40   1.0000      -0.553050       -15.0493 
  41   1.0000      -0.546146       -14.8614 
  42   1.0000      -0.536453       -14.5976 
  43   1.0000      -0.502510       -13.6740 
  44   1.0000      -0.489601       -13.3227 
  45   1.0000      -0.478810       -13.0291 
  46   1.0000      -0.467315       -12.7163 
  47   1.0000      -0.455759       -12.4018 
  48   1.0000      -0.444030       -12.0827 
  49   1.0000      -0.437096       -11.8940 
  50   1.0000      -0.436394       -11.8749 
  51   1.0000      -0.430742       -11.7211 
  52   1.0000      -0.427912       -11.6441 
  53   1.0000      -0.415966       -11.3190 
  54   1.0000      -0.410568       -11.1721 
  55   1.0000      -0.409172       -11.1341 
  56   1.0000      -0.401457       -10.9242 
  57   1.0000      -0.394449       -10.7335 
  58   1.0000      -0.387529       -10.5452 
  59   1.0000      -0.379355       -10.3228 
  60   1.0000      -0.370256       -10.0752 
  61   1.0000      -0.365628        -9.9492 
  62   1.0000      -0.361359        -9.8331 
  63   1.0000      -0.348759        -9.4902 
  64   1.0000      -0.346603        -9.4316 
  65   1.0000      -0.336041        -9.1442 
  66   1.0000      -0.324350        -8.8260 
  67   1.0000      -0.322169        -8.7667 
  68   1.0000      -0.311852        -8.4859 
  69   1.0000      -0.306153        -8.3309 
  70   1.0000      -0.285073        -7.7572 
  71   1.0000      -0.262563        -7.1447 
  72   1.0000      -0.247661        -6.7392 
  73   1.0000      -0.228929        -6.2295 
  74   1.0000      -0.221451        -6.0260 
  75   1.0000      -0.219385        -5.9698 
  76   1.0000      -0.212470        -5.7816 
  77   1.0000      -0.190746        -5.1905 
  78   1.0000      -0.182540        -4.9672 
  79   1.0000      -0.134749        -3.6667 
  80   0.0000       0.163530         4.4499 
  81   0.0000       0.171113         4.6562 
  82   0.0000       0.178650         4.8613 
  83   0.0000       0.194053         5.2805 
  84   0.0000       0.196584         5.3493 
  85   0.0000       0.203853         5.5471 
  86   0.0000       0.221033         6.0146 
  87   0.0000       0.229229         6.2376 
  88   0.0000       0.238098         6.4790 
  89   0.0000       0.242669         6.6034 
  90   0.0000       0.243510         6.6263 

                 SPIN DOWN ORBITALS
  NO   OCC          E(Eh)            E(eV) 
   0   1.0000     -19.165261      -521.5133 
   1   1.0000     -19.149280      -521.0784 
   2   1.0000     -19.121633      -520.3261 
   3   1.0000     -19.031306      -517.8682 
   4   1.0000     -10.231372      -278.4098 
   5   1.0000     -10.195131      -277.4236 
   6   1.0000     -10.193159      -277.3700 
   7   1.0000     -10.184689      -277.1395 
   8   1.0000     -10.183223      -277.0996 
   9   1.0000     -10.177063      -276.9320 
  10   1.0000     -10.173924      -276.8465 
  11   1.0000     -10.173694      -276.8403 
  12   1.0000     -10.172224      -276.8003 
  13   1.0000     -10.169671      -276.7308 
  14   1.0000     -10.166125      -276.6343 
  15   1.0000     -10.164987      -276.6034 
  16   1.0000     -10.155507      -276.3454 
  17   1.0000     -10.154377      -276.3146 
  18   1.0000     -10.153224      -276.2833 
  19   1.0000     -10.152662      -276.2680 
  20   1.0000     -10.146145      -276.0907 
  21   1.0000     -10.133488      -275.7462 
  22   1.0000      -1.112828       -30.2816 
  23   1.0000      -1.082554       -29.4578 
  24   1.0000      -0.965840       -26.2818 
  25   1.0000      -0.864613       -23.5273 
  26   1.0000      -0.844287       -22.9742 
  27   1.0000      -0.813554       -22.1379 
  28   1.0000      -0.805540       -21.9198 
  29   1.0000      -0.766191       -20.8491 
  30   1.0000      -0.754198       -20.5228 
  31   1.0000      -0.743526       -20.2324 
  32   1.0000      -0.731049       -19.8929 
  33   1.0000      -0.711448       -19.3595 
  34   1.0000      -0.682709       -18.5774 
  35   1.0000      -0.663208       -18.0468 
  36   1.0000      -0.627809       -17.0836 
  37   1.0000      -0.604280       -16.4433 
  38   1.0000      -0.575234       -15.6529 
  39   1.0000      -0.566097       -15.4043 
  40   1.0000      -0.552727       -15.0405 
  41   1.0000      -0.546074       -14.8594 
  42   1.0000      -0.536247       -14.5920 
  43   1.0000      -0.494858       -13.4658 
  44   1.0000      -0.487781       -13.2732 
  45   1.0000      -0.478575       -13.0227 
  46   1.0000      -0.466470       -12.6933 
  47   1.0000      -0.455594       -12.3973 
  48   1.0000      -0.443165       -12.0591 
  49   1.0000      -0.436889       -11.8884 
  50   1.0000      -0.435181       -11.8419 
  51   1.0000      -0.428056       -11.6480 
  52   1.0000      -0.411184       -11.1889 
  53   1.0000      -0.409192       -11.1347 
  54   1.0000      -0.402091       -10.9415 
  55   1.0000      -0.397800       -10.8247 
  56   1.0000      -0.393760       -10.7147 
  57   1.0000      -0.387531       -10.5453 
  58   1.0000      -0.378245       -10.2926 
  59   1.0000      -0.370436       -10.0801 
  60   1.0000      -0.365431        -9.9439 
  61   1.0000      -0.361461        -9.8358 
  62   1.0000      -0.348218        -9.4755 
  63   1.0000      -0.347775        -9.4634 
  64   1.0000      -0.340326        -9.2607 
  65   1.0000      -0.334778        -9.1098 
  66   1.0000      -0.324136        -8.8202 
  67   1.0000      -0.321375        -8.7451 
  68   1.0000      -0.311581        -8.4786 
  69   1.0000      -0.306134        -8.3303 
  70   1.0000      -0.283951        -7.7267 
  71   1.0000      -0.262365        -7.1393 
  72   1.0000      -0.247586        -6.7372 
  73   1.0000      -0.228797        -6.2259 
  74   1.0000      -0.219986        -5.9861 
  75   1.0000      -0.204168        -5.5557 
  76   1.0000      -0.185917        -5.0591 
  77   1.0000      -0.179955        -4.8968 
  78   1.0000      -0.133813        -3.6412 
  79   0.0000       0.142388         3.8746 
  80   0.0000       0.163564         4.4508 
  81   0.0000       0.171343         4.6625 
  82   0.0000       0.178661         4.8616 
  83   0.0000       0.194087         5.2814 
  84   0.0000       0.196621         5.3503 
  85   0.0000       0.204017         5.5516 
  86   0.0000       0.221079         6.0159 
  87   0.0000       0.229262         6.2385 
  88   0.0000       0.238111         6.4793 
  89   0.0000       0.242684         6.6038 
*Only the first 10 virtual orbitals were printed.

                    ********************************
                    * MULLIKEN POPULATION ANALYSIS *
                    ********************************

--------------------------------------------
MULLIKEN ATOMIC CHARGES AND SPIN POPULATIONS
--------------------------------------------
   0 O :   -0.579121   -0.000713
   1 O :   -0.323849   -0.000011
   2 C :   -0.010588    0.000251
   3 C :    0.114602    0.000249
   4 C :   -0.043029    0.000813
   5 C :   -0.094093   -0.001414
   6 C :   -0.041080   -0.000498
   7 C :   -0.172461    0.000220
   8 C :    0.226669   -0.000937
   9 C :   -0.204438   -0.000255
  10 C :    0.233159   -0.000162
  11 C :   -0.097196    0.000345
  12 C :   -0.095308    0.000036
  13 C :   -0.097810    0.000280
  14 C :   -0.178525    0.000156
  15 C :   -0.248835   -0.000086
  16 C :   -0.108520    0.003130
  17 C :   -0.109130   -0.000010
  18 C :   -0.248873   -0.000079
  19 C :   -0.238254   -0.000012
  20 H :    0.122081   -0.001302
  21 H :    0.087154   -0.000016
  22 H :    0.097663    0.000003
  23 H :    0.095598   -0.000232
  24 H :    0.067364    0.000115
  25 H :    0.064234   -0.000002
  26 H :    0.068800   -0.000028
  27 H :    0.067302   -0.000009
  28 H :    0.056210   -0.000002
  29 H :    0.073410    0.000142
  30 H :    0.122562   -0.002626
  31 H :    0.101783   -0.000002
  32 H :    0.259960   -0.004844
  33 H :    0.169611   -0.000002
  34 H :    0.085117    0.000046
  35 H :    0.065470    0.000114
  36 H :    0.085354   -0.000000
  37 H :    0.067850   -0.000000
  38 O :   -0.168931    0.356018
  39 O :   -0.271910    0.651324
Sum of atomic charges         :   -1.0000000
Sum of atomic spin populations:    1.0000000

-----------------------------------------------------
MULLIKEN REDUCED ORBITAL CHARGES AND SPIN POPULATIONS
-----------------------------------------------------
CHARGE
  0 O s       :     3.817350  s :     3.817350
      pz      :     1.550251  p :     4.734081
      px      :     1.510307
      py      :     1.673523
      dz2     :     0.004524  d :     0.026095
      dxz     :     0.006209
      dyz     :     0.002290
      dx2y2   :     0.005907
      dxy     :     0.007166
      f0      :     0.000133  f :     0.001594
      f+1     :     0.000317
      f-1     :     0.000053
      f+2     :     0.000259
      f-2     :     0.000268
      f+3     :     0.000276
      f-3     :     0.000289

  1 O s       :     3.753869  s :     3.753869
      pz      :     1.286099  p :     4.541468
      px      :     1.481224
      py      :     1.774145
      dz2     :     0.007903  d :     0.027308
      dxz     :     0.004859
      dyz     :     0.001352
      dx2y2   :     0.006910
      dxy     :     0.006284
      f0      :     0.000148  f :     0.001204
      f+1     :     0.000095
      f-1     :     0.000056
      f+2     :     0.000175
      f-2     :     0.000130
      f+3     :     0.000283
      f-3     :     0.000316

  2 C s       :     3.320481  s :     3.320481
      pz      :     0.954202  p :     2.561041
      px      :     0.716337
      py      :     0.890502
      dz2     :     0.022995  d :     0.119571
      dxz     :     0.027194
      dyz     :     0.015122
      dx2y2   :     0.027130
      dxy     :     0.027131
      f0      :     0.000931  f :     0.009495
      f+1     :     0.001549
      f-1     :     0.001155
      f+2     :     0.001518
      f-2     :     0.001639
      f+3     :     0.001648
      f-3     :     0.001055

  3 C s       :     3.281932  s :     3.281932
      pz      :     0.841271  p :     2.446161
      px      :     0.715789
      py      :     0.889101
      dz2     :     0.036339  d :     0.147399
      dxz     :     0.046431
      dyz     :     0.024522
      dx2y2   :     0.018231
      dxy     :     0.021876
      f0      :     0.001488  f :     0.009907
      f+1     :     0.002377
      f-1     :     0.001427
      f+2     :     0.001165
      f-2     :     0.001165
      f+3     :     0.001184
      f-3     :     0.001101

  4 C s       :     3.243985  s :     3.243985
      pz      :     0.790094  p :     2.657132
      px      :     0.874661
      py      :     0.992378
      dz2     :     0.036086  d :     0.132172
      dxz     :     0.032531
      dyz     :     0.024137
      dx2y2   :     0.019469
      dxy     :     0.019949
      f0      :     0.001506  f :     0.009739
      f+1     :     0.002283
      f-1     :     0.001442
      f+2     :     0.001169
      f-2     :     0.001040
      f+3     :     0.001297
      f-3     :     0.001001

  5 C s       :     3.093992  s :     3.093992
      pz      :     1.072354  p :     2.887669
      px      :     0.905047
      py      :     0.910268
      dz2     :     0.031394  d :     0.104741
      dxz     :     0.026337
      dyz     :     0.010385
      dx2y2   :     0.017221
      dxy     :     0.019403
      f0      :     0.000966  f :     0.007691
      f+1     :     0.001549
      f-1     :     0.000386
      f+2     :     0.001000
      f-2     :     0.001124
      f+3     :     0.001519
      f-3     :     0.001147

  6 C s       :     3.214763  s :     3.214763
      pz      :     0.893257  p :     2.673441
      px      :     0.810899
      py      :     0.969286
      dz2     :     0.027733  d :     0.143297
      dxz     :     0.036812
      dyz     :     0.013864
      dx2y2   :     0.033366
      dxy     :     0.031521
      f0      :     0.001127  f :     0.009579
      f+1     :     0.001413
      f-1     :     0.001118
      f+2     :     0.001450
      f-2     :     0.001655
      f+3     :     0.001694
      f-3     :     0.001122

  7 C s       :     3.088664  s :     3.088664
      pz      :     1.010574  p :     2.964665
      px      :     0.925765
      py      :     1.028326
      dz2     :     0.013314  d :     0.111373
      dxz     :     0.028270
      dyz     :     0.013826
      dx2y2   :     0.027633
      dxy     :     0.028330
      f0      :     0.000451  f :     0.007759
      f+1     :     0.001698
      f-1     :     0.000633
      f+2     :     0.001244
      f-2     :     0.000872
      f+3     :     0.001822
      f-3     :     0.001039

  8 C s       :     3.030910  s :     3.030910
      pz      :     0.861558  p :     2.517052
      px      :     0.819114
      py      :     0.836381
      dz2     :     0.046131  d :     0.208002
      dxz     :     0.039601
      dyz     :     0.022083
      dx2y2   :     0.053503
      dxy     :     0.046685
      f0      :     0.001267  f :     0.017366
      f+1     :     0.003521
      f-1     :     0.001357
      f+2     :     0.002302
      f-2     :     0.002875
      f+3     :     0.003885
      f-3     :     0.002159

  9 C s       :     3.170152  s :     3.170152
      pz      :     0.958492  p :     2.922920
      px      :     0.986793
      py      :     0.977635
      dz2     :     0.019784  d :     0.103844
      dxz     :     0.039658
      dyz     :     0.018992
      dx2y2   :     0.012121
      dxy     :     0.013289
      f0      :     0.001055  f :     0.007522
      f+1     :     0.001718
      f-1     :     0.001270
      f+2     :     0.000779
      f-2     :     0.000627
      f+3     :     0.001230
      f-3     :     0.000843

 10 C s       :     3.068049  s :     3.068049
      pz      :     0.886977  p :     2.516397
      px      :     0.712489
      py      :     0.916931
      dz2     :     0.034580  d :     0.166871
      dxz     :     0.043700
      dyz     :     0.030300
      dx2y2   :     0.026384
      dxy     :     0.031906
      f0      :     0.001679  f :     0.015524
      f+1     :     0.003821
      f-1     :     0.001811
      f+2     :     0.001652
      f-2     :     0.001768
      f+3     :     0.002630
      f-3     :     0.002164

 11 C s       :     3.171874  s :     3.171874
      pz      :     0.965385  p :     2.825302
      px      :     0.949763
      py      :     0.910153
      dz2     :     0.015379  d :     0.095128
      dxz     :     0.019075
      dyz     :     0.022192
      dx2y2   :     0.013788
      dxy     :     0.024695
      f0      :     0.000524  f :     0.004893
      f+1     :     0.000799
      f-1     :     0.000402
      f+2     :     0.000666
      f-2     :     0.001031
      f+3     :     0.000631
      f-3     :     0.000839

 12 C s       :     3.175175  s :     3.175175
      pz      :     1.011036  p :     2.815850
      px      :     0.940373
      py      :     0.864441
      dz2     :     0.024339  d :     0.099377
      dxz     :     0.011771
      dyz     :     0.017237
      dx2y2   :     0.018991
      dxy     :     0.027040
      f0      :     0.000648  f :     0.004905
      f+1     :     0.000584
      f-1     :     0.000506
      f+2     :     0.000867
      f-2     :     0.000274
      f+3     :     0.001126
      f-3     :     0.000900

 13 C s       :     3.114676  s :     3.114676
      pz      :     0.933522  p :     2.862430
      px      :     0.988812
      py      :     0.940096
      dz2     :     0.028333  d :     0.113150
      dxz     :     0.024447
      dyz     :     0.011263
      dx2y2   :     0.025429
      dxy     :     0.023678
      f0      :     0.000951  f :     0.007553
      f+1     :     0.001179
      f-1     :     0.001022
      f+2     :     0.001075
      f-2     :     0.001481
      f+3     :     0.001131
      f-3     :     0.000715

 14 C s       :     3.151054  s :     3.151054
      pz      :     0.934592  p :     2.933742
      px      :     0.928331
      py      :     1.070819
      dz2     :     0.019136  d :     0.086373
      dxz     :     0.025418
      dyz     :     0.008739
      dx2y2   :     0.014197
      dxy     :     0.018884
      f0      :     0.000874  f :     0.007357
      f+1     :     0.001455
      f-1     :     0.000458
      f+2     :     0.000956
      f-2     :     0.001129
      f+3     :     0.001420
      f-3     :     0.001065

 15 C s       :     3.223785  s :     3.223785
      pz      :     0.976496  p :     2.930329
      px      :     0.910617
      py      :     1.043217
      dz2     :     0.011873  d :     0.087528
      dxz     :     0.022635
      dyz     :     0.010969
      dx2y2   :     0.019412
      dxy     :     0.022640
      f0      :     0.000440  f :     0.007193
      f+1     :     0.001385
      f-1     :     0.000694
      f+2     :     0.001247
      f-2     :     0.000830
      f+3     :     0.001524
      f-3     :     0.001073

 16 C s       :     3.210470  s :     3.210470
      pz      :     0.914243  p :     2.788514
      px      :     0.959580
      py      :     0.914691
      dz2     :     0.004880  d :     0.102825
      dxz     :     0.023022
      dyz     :     0.014242
      dx2y2   :     0.024840
      dxy     :     0.035842
      f0      :     0.000839  f :     0.006710
      f+1     :     0.000761
      f-1     :     0.000520
      f+2     :     0.000980
      f-2     :     0.000975
      f+3     :     0.001301
      f-3     :     0.001334

 17 C s       :     3.193425  s :     3.193425
      pz      :     0.985933  p :     2.800749
      px      :     0.904001
      py      :     0.910816
      dz2     :     0.030702  d :     0.108241
      dxz     :     0.010668
      dyz     :     0.031366
      dx2y2   :     0.013361
      dxy     :     0.022143
      f0      :     0.001325  f :     0.006714
      f+1     :     0.000581
      f-1     :     0.000881
      f+2     :     0.001059
      f-2     :     0.000765
      f+3     :     0.001253
      f-3     :     0.000850

 18 C s       :     3.180760  s :     3.180760
      pz      :     1.025781  p :     2.998517
      px      :     0.955963
      py      :     1.016772
      dz2     :     0.003942  d :     0.065215
      dxz     :     0.016917
      dyz     :     0.004398
      dx2y2   :     0.012191
      dxy     :     0.027767
      f0      :     0.000691  f :     0.004381
      f+1     :     0.000596
      f-1     :     0.000194
      f+2     :     0.000646
      f-2     :     0.000619
      f+3     :     0.000989
      f-3     :     0.000646

 19 C s       :     3.182649  s :     3.182649
      pz      :     0.955929  p :     2.986309
      px      :     1.037519
      py      :     0.992861
      dz2     :     0.029633  d :     0.064929
      dxz     :     0.007350
      dyz     :     0.011184
      dx2y2   :     0.011579
      dxy     :     0.005183
      f0      :     0.000955  f :     0.004367
      f+1     :     0.000498
      f-1     :     0.000605
      f+2     :     0.000527
      f-2     :     0.000706
      f+3     :     0.000473
      f-3     :     0.000604

 20 H s       :     0.829570  s :     0.829570
      pz      :     0.023621  p :     0.046158
      px      :     0.010631
      py      :     0.011906
      dz2     :     0.000535  d :     0.002191
      dxz     :     0.000890
      dyz     :     0.000593
      dx2y2   :     0.000077
      dxy     :     0.000095

 21 H s       :     0.870328  s :     0.870328
      pz      :     0.015206  p :     0.040322
      px      :     0.010500
      py      :     0.014616
      dz2     :     0.000536  d :     0.002196
      dxz     :     0.000512
      dyz     :     0.000362
      dx2y2   :     0.000295
      dxy     :     0.000491

 22 H s       :     0.862111  s :     0.862111
      pz      :     0.013223  p :     0.038136
      px      :     0.013655
      py      :     0.011258
      dz2     :     0.000722  d :     0.002090
      dxz     :     0.000394
      dyz     :     0.000308
      dx2y2   :     0.000309
      dxy     :     0.000356

 23 H s       :     0.864419  s :     0.864419
      pz      :     0.015627  p :     0.037824
      px      :     0.011160
      py      :     0.011038
      dz2     :     0.000691  d :     0.002159
      dxz     :     0.000499
      dyz     :     0.000453
      dx2y2   :     0.000253
      dxy     :     0.000263

 24 H s       :     0.891452  s :     0.891452
      pz      :     0.011756  p :     0.038934
      px      :     0.014008
      py      :     0.013170
      dz2     :     0.000365  d :     0.002250
      dxz     :     0.000417
      dyz     :     0.000316
      dx2y2   :     0.000710
      dxy     :     0.000442

 25 H s       :     0.896884  s :     0.896884
      pz      :     0.010877  p :     0.036692
      px      :     0.014325
      py      :     0.011490
      dz2     :     0.000439  d :     0.002190
      dxz     :     0.000411
      dyz     :     0.000207
      dx2y2   :     0.000668
      dxy     :     0.000466

 26 H s       :     0.893278  s :     0.893278
      pz      :     0.016298  p :     0.035803
      px      :     0.010075
      py      :     0.009430
      dz2     :     0.000512  d :     0.002119
      dxz     :     0.000761
      dyz     :     0.000720
      dx2y2   :     0.000085
      dxy     :     0.000042

 27 H s       :     0.893755  s :     0.893755
      pz      :     0.011485  p :     0.036856
      px      :     0.013378
      py      :     0.011993
      dz2     :     0.000266  d :     0.002087
      dxz     :     0.000587
      dyz     :     0.000173
      dx2y2   :     0.000490
      dxy     :     0.000572

 28 H s       :     0.903432  s :     0.903432
      pz      :     0.016000  p :     0.038304
      px      :     0.009191
      py      :     0.013114
      dz2     :     0.000531  d :     0.002055
      dxz     :     0.000753
      dyz     :     0.000663
      dx2y2   :     0.000053
      dxy     :     0.000055

 29 H s       :     0.889787  s :     0.889787
      pz      :     0.012955  p :     0.034737
      px      :     0.008297
      py      :     0.013485
      dz2     :     0.000590  d :     0.002067
      dxz     :     0.000477
      dyz     :     0.000321
      dx2y2   :     0.000273
      dxy     :     0.000406

 30 H s       :     0.837847  s :     0.837847
      pz      :     0.011970  p :     0.037569
      px      :     0.012291
      py      :     0.013308
      dz2     :     0.000338  d :     0.002022
      dxz     :     0.000342
      dyz     :     0.000327
      dx2y2   :     0.000663
      dxy     :     0.000352

 31 H s       :     0.860367  s :     0.860367
      pz      :     0.015359  p :     0.035792
      px      :     0.009636
      py      :     0.010797
      dz2     :     0.000589  d :     0.002059
      dxz     :     0.000603
      dyz     :     0.000698
      dx2y2   :     0.000117
      dxy     :     0.000051

 32 H s       :     0.622123  s :     0.622123
      pz      :     0.060062  p :     0.108677
      px      :     0.027710
      py      :     0.020905
      dz2     :     0.003983  d :     0.009240
      dxz     :     0.002730
      dyz     :     0.001841
      dx2y2   :     0.000343
      dxy     :     0.000343

 33 H s       :     0.730281  s :     0.730281
      pz      :     0.034128  p :     0.090637
      px      :     0.021125
      py      :     0.035384
      dz2     :     0.003885  d :     0.009472
      dxz     :     0.002211
      dyz     :     0.003274
      dx2y2   :     0.000054
      dxy     :     0.000048

 34 H s       :     0.876826  s :     0.876826
      pz      :     0.011667  p :     0.036199
      px      :     0.009049
      py      :     0.015483
      dz2     :     0.000191  d :     0.001858
      dxz     :     0.000196
      dyz     :     0.000472
      dx2y2   :     0.000493
      dxy     :     0.000505

 35 H s       :     0.893517  s :     0.893517
      pz      :     0.013827  p :     0.039024
      px      :     0.013648
      py      :     0.011549
      dz2     :     0.000423  d :     0.001989
      dxz     :     0.000401
      dyz     :     0.000250
      dx2y2   :     0.000561
      dxy     :     0.000353

 36 H s       :     0.876145  s :     0.876145
      pz      :     0.007580  p :     0.036634
      px      :     0.012473
      py      :     0.016581
      dz2     :     0.000147  d :     0.001867
      dxz     :    -0.000001
      dyz     :     0.000671
      dx2y2   :     0.000321
      dxy     :     0.000729

 37 H s       :     0.891177  s :     0.891177
      pz      :     0.018700  p :     0.038975
      px      :     0.011979
      py      :     0.008295
      dz2     :     0.000629  d :     0.001998
      dxz     :     0.000705
      dyz     :     0.000559
      dx2y2   :     0.000074
      dxy     :     0.000031

 38 O s       :     3.816819  s :     3.816819
      pz      :     1.636529  p :     4.302966
      px      :     1.366124
      py      :     1.300313
      dz2     :     0.007423  d :     0.046000
      dxz     :     0.008278
      dyz     :     0.009087
      dx2y2   :     0.011113
      dxy     :     0.010099
      f0      :     0.000316  f :     0.003146
      f+1     :     0.000261
      f-1     :     0.000317
      f+2     :     0.000041
      f-2     :     0.000545
      f+3     :     0.000857
      f-3     :     0.000809

 39 O s       :     3.925750  s :     3.925750
      pz      :     1.941738  p :     4.304505
      px      :     1.221904
      py      :     1.140862
      dz2     :     0.004201  d :     0.038311
      dxz     :     0.003898
      dyz     :     0.005268
      dx2y2   :     0.012774
      dxy     :     0.012169
      f0      :     0.000292  f :     0.003344
      f+1     :     0.000324
      f-1     :     0.000442
      f+2     :     0.000021
      f-2     :     0.000451
      f+3     :     0.000915
      f-3     :     0.000900


SPIN
  0 O s       :    -0.000143  s :    -0.000143
      pz      :    -0.000397  p :    -0.000522
      px      :    -0.000260
      py      :     0.000135
      dz2     :    -0.000023  d :    -0.000048
      dxz     :    -0.000025
      dyz     :     0.000002
      dx2y2   :    -0.000002
      dxy     :     0.000000
      f0      :    -0.000000  f :     0.000000
      f+1     :     0.000001
[...]
      dx2y2   :     0.000000
      dxy     :     0.000000

 29 H s       :     0.000042  s :     0.000042
      pz      :    -0.000008  p :    -0.000028
      px      :     0.000000
      py      :    -0.000020
      dz2     :    -0.000003  d :    -0.000004
      dxz     :     0.000000
      dyz     :     0.000000
      dx2y2   :    -0.000001
      dxy     :    -0.000000

 30 H s       :     0.000178  s :     0.000178
      pz      :     0.000429  p :     0.000810
      px      :     0.000375
      py      :     0.000006
      dz2     :     0.000005  d :     0.000032
      dxz     :     0.000006
      dyz     :     0.000007
      dx2y2   :     0.000004
      dxy     :     0.000010

 31 H s       :    -0.000000  s :    -0.000000
      pz      :    -0.000000  p :    -0.000001
      px      :    -0.000000
      py      :    -0.000000
      dz2     :    -0.000000  d :    -0.000000
      dxz     :     0.000000
      dyz     :    -0.000000
      dx2y2   :    -0.000000
      dxy     :    -0.000000

 32 H s       :    -0.006496  s :    -0.006496
      pz      :     0.000725  p :     0.013720
      px      :     0.007648
      py      :     0.005347
      dz2     :     0.000739  d :     0.005912
      dxz     :     0.002540
      dyz     :     0.002168
      dx2y2   :     0.000400
      dxy     :     0.000065

 33 H s       :    -0.000000  s :    -0.000000
      pz      :    -0.000000  p :    -0.000001
      px      :    -0.000000
      py      :    -0.000001
      dz2     :    -0.000000  d :    -0.000001
      dxz     :    -0.000000
      dyz     :    -0.000000
      dx2y2   :     0.000000
      dxy     :    -0.000000

 34 H s       :     0.000013  s :     0.000013
      pz      :     0.000002  p :     0.000004
      px      :    -0.000001
      py      :     0.000002
      dz2     :     0.000000  d :     0.000001
      dxz     :     0.000000
      dyz     :     0.000000
      dx2y2   :     0.000000
      dxy     :     0.000000

 35 H s       :     0.000044  s :     0.000044
      pz      :    -0.000000  p :     0.000016
      px      :     0.000015
      py      :     0.000001
      dz2     :     0.000001  d :     0.000001
      dxz     :    -0.000000
      dyz     :     0.000000
      dx2y2   :     0.000000
      dxy     :    -0.000000

 36 H s       :     0.000000  s :     0.000000
      pz      :    -0.000000  p :    -0.000001
      px      :    -0.000000
      py      :    -0.000000
      dz2     :    -0.000000  d :    -0.000000
      dxz     :    -0.000000
      dyz     :    -0.000000
      dx2y2   :    -0.000000
      dxy     :    -0.000000

 37 H s       :    -0.000000  s :    -0.000000
      pz      :    -0.000000  p :    -0.000001
      px      :    -0.000000
      py      :    -0.000000
      dz2     :    -0.000000  d :    -0.000000
      dxz     :    -0.000000
      dyz     :    -0.000000
      dx2y2   :    -0.000000
      dxy     :    -0.000000

 38 O s       :     0.005595  s :     0.005595
      pz      :     0.013517  p :     0.329777
      px      :     0.183556
      py      :     0.132704
      dz2     :    -0.000066  d :     0.014419
      dxz     :     0.000322
      dyz     :    -0.000359
      dx2y2   :     0.012863
      dxy     :     0.001659
      f0      :    -0.000018  f :     0.001686
      f+1     :     0.000031
      f-1     :     0.000077
      f+2     :     0.000001
      f-2     :     0.000075
      f+3     :     0.000401
      f-3     :     0.001118

 39 O s       :     0.007692  s :     0.007692
      pz      :     0.022644  p :     0.619828
      px      :     0.342108
      py      :     0.255076
      dz2     :    -0.000304  d :     0.008794
      dxz     :     0.000141
      dyz     :    -0.000032
      dx2y2   :     0.007633
      dxy     :     0.001357
      f0      :     0.000002  f :     0.000917
      f+1     :     0.000039
      f-1     :     0.000061
      f+2     :     0.000007
      f-2     :     0.000070
      f+3     :     0.000098
      f-3     :     0.000640



                      *****************************
                      * MAYER POPULATION ANALYSIS *
                      *****************************

  NA   - Mulliken gross atomic population
  ZA   - Total nuclear charge
  QA   - Mulliken gross atomic charge
  VA   - Mayer's total valence
  BVA  - Mayer's bonded valence
  FA   - Mayer's free valence

  ATOM       NA         ZA         QA         VA         BVA        FA
  0 O      8.5791     8.0000    -0.5791     1.9007     1.9007     0.0000
  1 O      8.3238     8.0000    -0.3238     2.1343     2.1343     0.0000
  2 C      6.0106     6.0000    -0.0106     3.4106     3.4106     0.0000
  3 C      5.8854     6.0000     0.1146     3.6235     3.6235     0.0000
  4 C      6.0430     6.0000    -0.0430     3.7957     3.7957     0.0000
  5 C      6.0941     6.0000    -0.0941     3.9179     3.9179     0.0000
  6 C      6.0411     6.0000    -0.0411     3.7280     3.7280     0.0000
  7 C      6.1725     6.0000    -0.1725     3.9288     3.9288     0.0000
  8 C      5.7733     6.0000     0.2267     4.1194     4.1194     0.0000
  9 C      6.2044     6.0000    -0.2044     4.0368     4.0368     0.0000
 10 C      5.7668     6.0000     0.2332     3.8638     3.8638     0.0000
 11 C      6.0972     6.0000    -0.0972     3.8974     3.8974     0.0000
 12 C      6.0953     6.0000    -0.0953     3.9070     3.9070     0.0000
 13 C      6.0978     6.0000    -0.0978     3.8953     3.8953     0.0000
 14 C      6.1785     6.0000    -0.1785     3.9074     3.9074     0.0000
 15 C      6.2488     6.0000    -0.2488     3.9979     3.9979     0.0000
 16 C      6.1085     6.0000    -0.1085     3.8412     3.8411     0.0000
 17 C      6.1091     6.0000    -0.1091     3.8300     3.8300     0.0000
 18 C      6.2489     6.0000    -0.2489     3.9680     3.9680     0.0000
 19 C      6.2383     6.0000    -0.2383     3.9527     3.9527     0.0000
 20 H      0.8779     1.0000     0.1221     1.0607     1.0607     0.0000
 21 H      0.9128     1.0000     0.0872     1.0194     1.0194     0.0000
 22 H      0.9023     1.0000     0.0977     1.0148     1.0148     0.0000
 23 H      0.9044     1.0000     0.0956     1.0072     1.0072     0.0000
 24 H      0.9326     1.0000     0.0674     1.0213     1.0213     0.0000
 25 H      0.9358     1.0000     0.0642     1.0064     1.0064     0.0000
 26 H      0.9312     1.0000     0.0688     1.0010     1.0010     0.0000
 27 H      0.9327     1.0000     0.0673     1.0064     1.0064     0.0000
 28 H      0.9438     1.0000     0.0562     1.0182     1.0182     0.0000
 29 H      0.9266     1.0000     0.0734     1.0273     1.0273     0.0000
 30 H      0.8774     1.0000     0.1226     1.0288     1.0288     0.0000
 31 H      0.8982     1.0000     0.1018     1.0114     1.0114     0.0000
 32 H      0.7400     1.0000     0.2600     1.0998     1.0997     0.0001
 33 H      0.8304     1.0000     0.1696     1.0589     1.0589     0.0000
 34 H      0.9149     1.0000     0.0851     1.0062     1.0062     0.0000
 35 H      0.9345     1.0000     0.0655     1.0154     1.0154     0.0000
 36 H      0.9146     1.0000     0.0854     1.0090     1.0090     0.0000
 37 H      0.9322     1.0000     0.0678     1.0146     1.0146     0.0000
 38 O      8.1689     8.0000    -0.1689     2.1208     1.9797     0.1411
 39 O      8.2719     8.0000    -0.2719     1.7869     1.3574     0.4295

  Mayer bond orders larger than 0.100000
B(  0-O ,  8-C ) :   1.4406 B(  0-O , 32-H ) :   0.3383 B(  1-O , 10-C ) :   1.0669 
B(  1-O , 33-H ) :   1.0211 B(  2-C ,  3-C ) :   0.8444 B(  2-C ,  7-C ) :   1.4010 
B(  2-C ,  8-C ) :   1.1957 B(  3-C ,  5-C ) :   1.3687 B(  3-C ,  9-C ) :   1.3953 
B(  4-C ,  5-C ) :   1.4678 B(  4-C , 10-C ) :   1.3407 B(  4-C , 11-C ) :   0.9202 
B(  5-C , 20-H ) :   0.9307 B(  6-C ,  7-C ) :   1.4107 B(  6-C , 12-C ) :   0.9427 
B(  6-C , 13-C ) :   1.3441 B(  7-C , 21-H ) :   0.9502 B(  8-C , 15-C ) :   1.3863 
B(  9-C , 14-C ) :   1.4581 B(  9-C , 22-H ) :   0.9636 B( 10-C , 14-C ) :   1.3940 
B( 11-C , 16-C ) :   0.9516 B( 11-C , 23-H ) :   1.0083 B( 11-C , 24-H ) :   1.0031 
B( 12-C , 17-C ) :   0.9481 B( 12-C , 25-H ) :   0.9963 B( 12-C , 26-H ) :   1.0003 
B( 13-C , 15-C ) :   1.4687 B( 13-C , 27-H ) :   0.9837 B( 14-C , 28-H ) :   0.9760 
B( 15-C , 29-H ) :   0.9954 B( 16-C , 18-C ) :   1.9161 B( 16-C , 30-H ) :   0.9682 
B( 17-C , 19-C ) :   1.9026 B( 17-C , 31-H ) :   0.9794 B( 18-C , 34-H ) :   0.9942 
B( 18-C , 35-H ) :   0.9969 B( 19-C , 36-H ) :   0.9976 B( 19-C , 37-H ) :   0.9950 
B( 32-H , 38-O ) :   0.7120 B( 38-O , 39-O ) :   1.2697 

-------
TIMINGS
-------

Total SCF time: 0 days 0 hours 2 min 5 sec 

Total time                  ....     125.630 sec
Sum of individual times     ....     125.080 sec  ( 99.6%)

SCF preparation             ....       1.163 sec  (  0.9%)
Fock matrix formation       ....     106.089 sec  ( 84.4%)
  Startup                   ....       0.927 sec  (  0.9% of F)
  Split-RI-J                ....       6.225 sec  (  5.9% of F)
  Chain of spheres X        ....      85.257 sec  ( 80.4% of F)
  XC integration            ....      10.293 sec  (  9.7% of F)
    XC Preparation          ....       0.000 sec  (  0.0% of XC)
    Basis function eval.    ....       1.439 sec  ( 14.0% of XC)
    Density eval.           ....       3.148 sec  ( 30.6% of XC)
    XC-Functional eval.     ....       0.220 sec  (  2.1% of XC)
    XC-Potential eval.      ....       3.078 sec  ( 29.9% of XC)
Diagonalization             ....       0.000 sec  (  0.0%)
Density matrix formation    ....       3.431 sec  (  2.7%)
Total Energy calculation    ....       0.826 sec  (  0.7%)
Population analysis         ....       0.414 sec  (  0.3%)
Orbital Transformation      ....       1.349 sec  (  1.1%)
Orbital Orthonormalization  ....       0.000 sec  (  0.0%)
DIIS solution               ....       4.584 sec  (  3.6%)
SOSCF solution              ....       7.223 sec  (  5.7%)
Finished LeanSCF after 125.9 sec

Maximum memory used throughout the entire LEANSCF-calculation: 152.8 MB


-------------------------------------------------------------------------------
                          DFT DISPERSION CORRECTION                            
                                                                               
                              DFTD3 V3.1  Rev 1                                
                              USING zero damping                               
-------------------------------------------------------------------------------
The omegaB97X-D3 functional is recognized. Fit by Chai et al.
Active option DFTDOPT                   ...         3   

molecular C6(AA) [au] = 17882.390757 


            DFT-D V3
 parameters
 s6 scaling factor         :     1.0000 
 rs6 scaling factor        :     1.2810 
 s8 scaling factor         :     1.0000 
 rs8 scaling factor        :     1.0940 
 Damping factor alpha6     :    14.0000 
 Damping factor alpha8     :    16.0000 
 ad hoc parameters k1-k3   :    16.0000     1.3333    -4.0000 

 Edisp/kcal,au: -11.564627501305  -0.018429405046 
 E6   /kcal   :  -5.585194711 
 E8   /kcal   :  -5.979432791 
 % E8         :  51.704499690 

-------------------------   ----------------
Dispersion correction           -0.018429405
-------------------------   ----------------


-------------------------   --------------------
FINAL SINGLE POINT ENERGY      -997.657257716650
-------------------------   --------------------



           ************************************************************
           *        Program running with 28 parallel MPI-processes    *
           *              working on a common directory               *
           ************************************************************

------------------------------------------------------------------------------
                              ORCA PROPERTY CALCULATIONS
------------------------------------------------------------------------------

GBWName                                 ... honokiol_o2_SP_19.gbw
Number of atoms                         ...     40
Number of basis functions               ...    934
Max core memory                         ...   3500 MB

Electric properties:
Dipole moment                           ... YES
Quadrupole moment                       ...  NO
Static polarizability (Dipole/Dipole)   ...  NO
Static polarizability (Dipole/Quad.)    ...  NO
Static polarizability (Quad./Quad.)     ...  NO
Static polarizability (Velocity)        ...  NO

Atomic electric properties:
Dipole moment                           ...  NO
Quadrupole moment                       ...  NO
Static polarizability                   ...  NO

Choice of electric origin               ... Center of mass
Position of electric origin             ...    -0.382764    -0.226949    -0.985280

General magnetic properties:
Magnetizability                         ...  NO

EPR properties:
g-Tensor (aka g-matrix)                 ...  NO
Zero-Field splitting spin-orbit         ...  NO
Zero-field splitting spin-spin          ...  NO
Hyperfine couplings                     ...  NO (   0 nuclei)
Quadrupole couplings                    ...  NO (   0 nuclei)
Contact density                         ...  NO (   0 nuclei)

NMR properties:
Chemical shifts                         ...  NO (   0 nuclei)
Spin-rotation constants                 ...  NO (   0 nuclei)
Spin-spin couplings                     ...  NO (   0 nuclei,    0 pairs)

Choice of magnetic origin               ... GIAO
Position of magnetic origin             ...     0.000000     0.000000     0.000000

Properties with geometric perturbations:
SCF Hessian                             ...  NO
IR spectrum                             ...  NO
VCD spectrum                            ...  NO
X-ray spectroscopy properties:
SCF XES/XAS/RIXS spectra                ...  NO


-------------
DIPOLE MOMENT
-------------

Method             : SCF
Type of density    : Electron Density
Multiplicity       :   2
Irrep              :   0
Energy             :  -997.6388283116042430 Eh
Relativity type    : 
Basis              : AO
                                X                 Y                 Z
Electronic contribution:     -4.820719248       4.270442127      -3.893505819
Nuclear contribution   :      4.970247276      -5.662855017       6.520251977
                        -----------------------------------------
Total Dipole Moment    :      0.149528028      -1.392412890       2.626746158
                        -----------------------------------------
Magnitude (a.u.)       :      2.976737756
Magnitude (Debye)      :      7.566266074



--------------------
Rotational spectrum 
--------------------
 
Rotational constants in cm-1:             0.013258             0.005419             0.004171 
Rotational constants in MHz :           397.450870           162.463081           125.029666 

Dipole components along the rotational axes: 
x,y,z [a.u.] :     0.589577    -2.913029     0.166224 
x,y,z [Debye]:     1.498585    -7.404331     0.422508 

 

Dipole moment calculation done in   0.0 sec 

Maximum memory used throughout the entire PROP-calculation: 85.6 MB

--------------------------------
SUGGESTED CITATIONS FOR THIS RUN
--------------------------------

Below you find a list of papers that are relevant to this ORCA run
We neither can nor want to force you to cite these papers, but we appreciate if you do
You receive ORCA, which is the product of decades of hard work by many enthusiastic individuals, for free
The only thing we kindly ask in return is that you cite our papers,
We deeply appreciate it, if you show your appreciation for ORCA by not just citing the generic ORCA reference.

Please note that relegating all ORCA citations to the supporting information does *not* help us.
SI sections are not indexed - citations you put there will not count into any citation statistics
But we need these citations in order to attract the funding resources that allow us to do what we are doing

Therefore, if you are a happy ORCA user, please consider citing a few of the papers listed below in the main body of your paper

In addition to the list printed below, the program has created the file honokiol_o2_SP_19.bibtex that contains the list in bibtex format
You can import this file easily into all common literature databanks and citation aid programs


List of essential papers. We consider these as the minimum necessary citations

  1. Neese,F.
     Software update: the ORCA program system, version 5.0
     WIRES Comput. Molec. Sci., 2022 12(1)e1606
     doi.org/10.1002/wcms.1606

List of papers to cite with high priority. The work reported in these papers was absolutely
necessary for this run to complete.
Our perspective: the developers of density functionals and basis sets usually get cited in chemistry papers
Good! But without the algorithms to do something with them, the functionals or basis sets would not do anything.
Hence, in our opinion, the algorithm design and method developments papers are equally worthy of getting cited

  1. Neese,F.
     An improvement of the resolution of the identity approximation for the formation of the Coulomb matrix
     J. Comp. Chem., 2003 24(14)1740-1747
     doi.org/10.1002/jcc.10318
  2. Neese,F.; Wennmohs,F.; Hansen,A.; Becker,U.
     Efficient, approximate and parallel Hartree-Fock and hybrid DFT calculations. A 'chain-of-spheres' algorithm for the Hartree-Fock exchange
     Chem. Phys., 2009 356(1-3)98-109
     doi.org/10.1016/j.chemphys.2008.10.036
  3. Helmich-Paris,B.; de Souza,B.; Neese,F.; Izsák,R.
     An improved chain of spheres for exchange algorithm
     J. Chem. Phys., 2021 155 104109
     doi.org/doi: 10.1063/5.0058766.
  4. Neese,F.
     The SHARK Integral Generation and Digestion System
     J. Comp. Chem., 2022  1-16
     doi.org/10.1002/jcc.26942
  5. Grimme,S.; Antony,J.; Ehrlich,S.; Krieg,H.
     A consistent and accurate ab initio parametrization of density functional dispersion correction (DFT-D) for the 94 elements H-Pu
     J. Chem. Phys., 2010 132 154104
     doi.org/10.1063/1.3382344

List of suggested additional citations. These are papers that are important in the 'surrounding' of 
of this run, or papers that preceded the highly important papers. If you like your results we are grateful for a citation.

  1. Izsak,R.; Neese,F.
     An overlap fitted chain of spheres exchange method
     J. Chem. Phys., 2011 135 144105
     doi.org/10.1063/1.3646921
  2. Izsak,R.; Hansen,A.; Neese,F.
     The resolution of identity and chain of spheres approximations for the LPNO-CCSD singles Fock term
     Molec. Phys., 2012 110 2413-2417
     doi.org/10.1080/00268976.2012.687466
  3. Neese,F.
     The ORCA program system
     WIRES Comput. Molec. Sci., 2012 2(1)73-78
     doi.org/10.1002/wcms.81
  4. Izsak,R.; Neese,F.; Klopper,W.
     Robust fitting techniques in the chain of spheres approximation to the Fock exchange: The role of the complementary space
     J. Chem. Phys., 2013 139 
     doi.org/10.1063/1.4819264
  5. Neese,F.
     Software update: the ORCA program system, version 4.0
     WIRES Comput. Molec. Sci., 2018 8(1)1-6
     doi.org/10.1002/wcms.1327
  6. Neese,F.; Wennmohs,F.; Becker,U.; Riplinger,C.
     The ORCA quantum chemistry program package
     J. Chem. Phys., 2020 152 Art. No. L224108
     doi.org/10.1063/5.0004608

List of optional additional citations

  1. Neese,F.
     Approximate second-order SCF convergence for spin unrestricted wavefunctions
     Chem. Phys. Lett., 2000 325(1-3)93-98
     doi.org/10.1016/s0009-2614(00)00662-x

Timings for individual modules:

Sum of individual times          ...      133.640 sec (=   2.227 min)
Startup calculation              ...        4.138 sec (=   0.069 min)   3.1 %
SCF iterations                   ...      128.378 sec (=   2.140 min)  96.1 %
Property calculations            ...        1.124 sec (=   0.019 min)   0.8 %
                             ****ORCA TERMINATED NORMALLY****
TOTAL RUN TIME: 0 days 0 hours 2 minutes 14 seconds 865 msec
