
                                 *****************
                                 * O   R   C   A *
                                 *****************

                                            #,                                       
                                            ###                                      
                                            ####                                     
                                            #####                                    
                                            ######                                   
                                           ########,                                 
                                     ,,################,,,,,                         
                               ,,#################################,,                 
                          ,,##########################################,,             
                       ,#########################################, ''#####,          
                    ,#############################################,,   '####,        
                  ,##################################################,,,,####,       
                ,###########''''           ''''###############################       
              ,#####''   ,,,,##########,,,,          '''####'''          '####       
            ,##' ,,,,###########################,,,                        '##       
           ' ,,###''''                  '''############,,,                           
         ,,##''                                '''############,,,,        ,,,,,,###''
      ,#''                                            '''#######################'''  
     '                                                          ''''####''''         
             ,#######,   #######,   ,#######,      ##                                
            ,#'     '#,  ##    ##  ,#'     '#,    #''#        ,####,   ,####,        
            ##       ##  ##   ,#'  ##            #'  '#       #'       #'  '#        
            ##       ##  #######   ##           ,######,      #####,   #    #        
            '#,     ,#'  ##    ##  '#,     ,#' ,#      #,     #,   #   #,  ,#        
             '#######'   ##     ##  '#######'  #'      '#     '####' # '####'        



                #########################################################
                #                        -***-                          #
                #          Department of theory and spectroscopy        #
                #                                                       #
                #                      Frank Neese                      #
                #                                                       #
                #     Directorship, Architecture, Infrastructure        #
                #                    SHARK, DRIVERS                     #
                #        Core code/Algorithms in most modules           #
                #                                                       #
                #        Max Planck Institute fuer Kohlenforschung      #
                #                Kaiser Wilhelm Platz 1                 #
                #                 D-45470 Muelheim/Ruhr                 #
                #                      Germany                          #
                #                                                       #
                #                  All rights reserved                  #
                #                        -***-                          #
                #########################################################


                         Program Version 6.0.1  -  RELEASE   -


 With contributions from (in alphabetic order):
[Max-Planck-Institut fuer Kohlenforschung]                               
  Daniel Aravena         : Magnetic Suceptibility                        
  Michael Atanasov       : Ab Initio Ligand Field Theory (pilot matlab implementation)
  Alexander A. Auer      : GIAO ZORA, VPT2 properties, NMR spectrum      
  Ute Becker             : All parallelization in ORCA, NUMFREQ, NUMCALC 
  Giovanni Bistoni       : ED, misc. LED, open-shell LED, HFLD           
  Martin Brehm           : Molecular dynamics                            
  Dmytro Bykov           : pre 5.0 version of the SCF Hessian            
  Marcos Casanova-Páez   : Triplet and SCS-CIS(D). UHF-(DLPNO)-IP/EA/STEOM-CCSD. UHF-CVS-IP/STEOM-CCSD   
  Vijay G. Chilkuri      : MRCI spin determinant printing, contributions to CSF-ICE 
  Pauline Colinet        : FMM embedding                                 
  Dipayan Datta          : RHF DLPNO-CCSD density                        
  Achintya Kumar Dutta   : EOM-CC, STEOM-CC                              
  Nicolas Foglia         : Exact transition moments, OPA infrastructure, MCD improvements    
  Dmitry Ganyushin       : Spin-Orbit,Spin-Spin,Magnetic field MRCI      
  Miquel Garcia-Rates    : C-PCM and meta-GGA Hessian, CCSD/C-PCM, Gaussian charge scheme 
  Tiago L. C. Gouveia    : GS-ROHF, GS-ROCIS                             
  Yang Guo               : DLPNO-NEVPT2, F12-NEVPT2, CIM, IAO-localization        
  Andreas Hansen         : Spin unrestricted coupled pair/coupled cluster methods 
  Ingolf Harden          : AUTO-CI MPn and infrastructure                
  Benjamin Helmich-Paris : MC-RPA, TRAH-(SCF,CASSCF), AVAS, COSX integrals, SCF dyn. polar. 
  Lee Huntington         : MR-EOM, pCC                                   
  Robert Izsak           : Overlap fitted RIJCOSX, COSX-SCS-MP3, EOM     
  Riya Kayal             : Wick's Theorem for AUTO-CI, AUTO-CI UHF-CCSDT 
  Emily Kempfer          : AUTO-CI, RHF CISDT and CCSDT                  
  Christian Kollmar      : KDIIS, OOCD, Brueckner-CCSD(T), CCSD density, CASPT2, CASPT2-K, improved NEVPT2 
  Axel Koslowski         : Symmetry handling                             
  Simone Kossmann        : meta-GGA functionals, TD-DFT gradient, OOMP2, (MP2 Hessian; deprecated post 5.0) 
  Lucas Lang             : DCDCAS                                        
  Marvin Lechner         : AUTO-CI (C++ implementation), FIC-MRCC        
  Spencer Leger          : CASSCF response                               
  Dagmar Lenk            : GEPOL surface, SMD, ORCA-2-JSON               
  Dimitrios Liakos       : Extrapolation schemes; Compound Job, initial MDCI parallelization 
  Dimitrios Manganas     : Further ROCIS development; embedding schemes. LFT, Crystal Embedding 
  Dimitrios Pantazis     : SARC Basis sets                               
  Anastasios Papadopoulos: AUTO-CI, single reference methods and gradients 
  Taras Petrenko         : pre 6.0 DFT Hessian and TD-DFT gradient, (ASA, deprecated), ECA, 1-Electron XAS/XES, NRVS 
  Peter Pinski           : DLPNO-MP2, DLPNO-MP2 Gradient                 
  Christoph Reimann      : Effective Core Potentials                     
  Marius Retegan         : Local ZFS, SOC                                
  Christoph Riplinger    : Optimizer, TS searches, QM/MM, DLPNO-CCSD(T), (RO)-DLPNO pert. Triples 
  Michael Roemelt        : Original ROCIS implementation                 
  Masaaki Saitow         : Open-shell DLPNO-CCSD energy and density      
  Barbara Sandhoefer     : DKH picture change effects                    
  Kantharuban Sivalingam : CASSCF convergence/infrastructure, NEVPT2 and variants, FIC-MRCI 
  Bernardo de Souza      : ESD, SOC TD-DFT                               
  Georgi L. Stoychev     : AutoAux, RI-MP2 NMR, DLPNO-MP2 response, X2C  
  Van Anh Tran           : RI-MP2 g-tensors                              
  Willem Van den Heuvel  : Paramagnetic NMR                              
  Zikuan Wang            : NOTCH, Electric field optimization            
  Frank Wennmohs         : Technical directorship and infrastructure     
  Hang Xu                : AUTO-CI-Response properties                   
                                                                         
[FACCTs GmbH]                                                            
  Markus Bursch, Miquel Garcia-Rates, Christoph Riplinger, Bernardo de Souza, Georgi L. Stoychev 
                                                                 
  APM, Basis sets (HGBS, AHGBS, def-TZVP (Ac-Lr), def2-XVPD (La-Lu)), CI-OPT, improved COSX, DLPNO-Multilevel,           
  DOCKER, DRACO, updates on ESD, GOAT, IRC, LR-CPCM, MBIS, meta-GGA TD-DFT gradient, ML-optimized integration grids, 
  MM, NACMEs, nearIR, NEB, NEB-TS, NL-DFT gradient (VV10), 2- and 3-layer-ONIOM, interface openCOSMO-RS, QMMM,   
  Crystal-QMMM, SF, symmetry and pop. for TD-DFT, r2SCAN hybrids, SOLVATOR                                   
                                                                         
[Other institutions]                                                     
  V. Asgeirsson          : NEB                                           
  Christoph Bannwarth    : sTDA-DFT, sTD-DFT, PBEh-3c, B97-3c, D3        
  Sebastian Ehlert       : rSCAN, r2SCAN, r2SCAN-3c, D4, dhf basis sets  
  Marvin Friede          : D4 for Fr, Ra, Ac-Lr                          
  Lars Goerigk           : TD-DFT with DH, B97 family of functionals     
  Stefan Grimme          : VdW corrections, initial TS optimization, DFT functionals, gCP, sTDA/sTD-DF 
  Waldemar Hujo          : DFT-NL                                        
  H. Jonsson             : NEB                                           
  Holger Kruse           : gCP                                           
  Marcel Mueller         : wB97X-3c, vDZP basis set                      
  Hagen Neugebauer       : wr2SCAN                                       
  Tobias Risthaus        : range-separated hybrid DFT                    
  Lukas Wittmann         : regularized MP2, r2SCAN double-hybrids, wr2SCAN        
                                                                         
We gratefully acknowledge several colleagues who have allowed us to      
interface, adapt or use parts of their codes:                            
  Ed Valeev, F. Pavosevic, A. Kumar             : LibInt (2-el integral package), F12 methods 
  Garnet Chan, S. Sharma, J. Yang, R. Olivares  : DMRG                   
  Ulf Ekstrom                                   : XCFun DFT Library      
  Mihaly Kallay                                 : mrcc  (arbitrary order and MRCC methods)
  Frank Weinhold                                : gennbo (NPA and NBO analysis)           
  Simon Mueller                                 : openCOSMO-RS                            
  Christopher J. Cramer and Donald G. Truhlar   : smd solvation model                     
  S Lehtola, MJT Oliveira, MAL Marques          : LibXC Library                           
  Liviu Ungur et al                             : ANISO software                          


 Your calculation uses the libint2 library for the computation of 2-el integrals
 For citations please refer to: http://libint.valeyev.net

 Your ORCA version has been built with support for libXC version: 6.2.2
 For citations please refer to: https://libxc.gitlab.io

 This ORCA versions uses:
   CBLAS   interface :  Fast vector & matrix operations
   LAPACKE interface :  Fast linear algebra routines
   SCALAPACK package :  Parallel linear algebra routines
   Shared memory     :  Shared parallel matrices
   BLAS/LAPACK       :  OpenBLAS 0.3.27  USE64BITINT DYNAMIC_ARCH NO_AFFINITY SkylakeX SINGLE_THREADED
        Core in use  :  SkylakeX
   Copyright (c) 2011-2014, The OpenBLAS Project


NOTE: MaxCore=3500 MB was set to SCF,MP2,MDCI,CIPSI,MRCI and CIS
      => If you want to overwrite this, your respective input block should be placed after the MaxCore statement
Your calculation utilizes the atom-pairwise dispersion correction
with the zero-damping scheme (D30)


XCFun DFT library Copyright 2009-2010 Ulf Ekstrom and contributors.
See http://admol.org/xcfun for more information.
This is free software; see the source code for copying conditions.
There is ABSOLUTELY NO WARRANTY; not even for MERCHANTABILITY or FITNESS FOR A PARTICULAR PURPOSE.
For details see the documentation.
Scientific users of this library should cite U. Ekstrom, L. Visscher, R. Bast, A. J. Thorvaldsen and K. Ruud;
J.Chem.Theor.Comp. 2010, DOI: 10.1021/ct100117s
XCFun Version 0.99 

Warning: RI is on but no J-basis has been assigned. Assigning Def2/J (nothing to worry about!)
================================================================================

----- Orbital basis set information -----
Your calculation utilizes the basis: def2-TZVP
   F. Weigend and R. Ahlrichs, Phys. Chem. Chem. Phys. 7, 3297 (2005).

----- AuxJ basis set information -----
Your calculation utilizes the auxiliary basis: def2/J
   F. Weigend, Phys. Chem. Chem. Phys. 8, 1057 (2006).

================================================================================
                                        WARNINGS
                       Please study these warnings very carefully!
================================================================================


WARNING: Gradients are needed
  ===> : At least TightSCF should be used for SCF convergence

WARNING: your system is open-shell and RHF/RKS was chosen
  ===> : WILL SWITCH to UHF/UKS


WARNING: Geometry Optimization
  ===> : Switching off AutoStart
         For restart on a previous wavefunction, please use MOREAD

================================================================================
                                       INPUT FILE
================================================================================
NAME = honokiol_o2_9.inp
|  1> ! wB97X-D3 def2-TZVP OPT NormalSCF
|  2> 
|  3> %pal
|  4> nprocs 28
|  5> end
|  6> 
|  7> %maxcore 3500
|  8> 
|  9> * xyz -1 2
| 10> O 0.17169 2.05725 -1.80272
| 11> O -4.09357 -1.39903 1.23266
| 12> C 1.05035 0.444506 -0.274697
| 13> C -0.305395 -0.008963 0.123537
| 14> C -2.60471 -0.656007 -0.45342
| 15> C -1.33946 -0.192201 -0.812935
| 16> C 3.49412 0.268234 0.005916
| 17> C 2.187 -0.132062 0.311259
| 18> C 1.25772 1.47238 -1.22471
| 19> C -0.586309 -0.30619 1.46633
| 20> C -2.85416 -0.945741 0.902383
| 21> C -3.71693 -0.800485 -1.46975
| 22> C 4.67964 -0.392949 0.686038
| 23> C 3.66369 1.28446 -0.938877
| 24> C -1.84297 -0.770883 1.85232
| 25> C 2.55644 1.87872 -1.54619
| 26> C -4.63815 0.394721 -1.45695
| 27> C 4.6667 -1.89288 0.565789
| 28> C -5.92081 0.372055 -1.08833
| 29> C 4.6241 -2.74581 1.5929
| 30> H -1.14861 0.030136 -1.86322
| 31> H 2.04281 -0.949452 1.02155
| 32> H 0.182952 -0.156 2.22669
| 33> H -3.26638 -0.903905 -2.47151
| 34> H -4.29679 -1.71395 -1.26747
| 35> H 5.60741 0.003244 0.237321
| 36> H 4.70509 -0.115308 1.75487
| 37> H 4.66929 1.61904 -1.20833
| 38> H -2.04661 -0.992006 2.90519
| 39> H 2.69827 2.67735 -2.28197
| 40> H -4.17593 1.34601 -1.75068
| 41> H 4.67321 -2.28492 -0.459296
| 42> H 0.470608 2.7632 -2.39045
| 43> H -4.13363 -1.55431 2.18514
| 44> H -6.53208 1.27926 -1.08624
| 45> H -6.40214 -0.556626 -0.765117
| 46> H 4.60897 -3.8286 1.43968
| 47> H 4.60538 -2.38987 2.62898
| 48> O 1.40173 4.70018 -3.3681
| 49> O 1.39853 3.85137 -4.20973
| 50> *
| 51> 
| 52>                          ****END OF INPUT****
================================================================================

                       *****************************
                       * Geometry Optimization Run *
                       *****************************

Geometry optimization settings:
Update method            Update   .... BFGS
Choice of coordinates    CoordSys .... (2022) Redundant Internals
Initial Hessian          InHess   .... Almloef's Model
Max. no of cycles        MaxIter  .... 120

Convergence Tolerances:
Energy Change            TolE     ....  5.0000e-06 Eh
Max. Gradient            TolMAXG  ....  3.0000e-04 Eh/bohr
RMS Gradient             TolRMSG  ....  1.0000e-04 Eh/bohr
Max. Displacement        TolMAXD  ....  4.0000e-03 bohr
RMS Displacement         TolRMSD  ....  2.0000e-03 bohr
Strict Convergence                .... False

------------------------------------------------------------------------------
                        ORCA OPTIMIZATION COORDINATE SETUP
------------------------------------------------------------------------------

The optimization will be done in redundant internal coordinates (2022)
Making redundant internal coordinates   ...  (2022 redundants) done
Evaluating the initial hessian          ...  (Almloef) done
Evaluating the coordinates              ...  done
Calculating the B-matrix                .... done
Calculating the G-matrix                .... done
Diagonalizing the G-matrix              .... done
Small eigenvalue found = 2.669e-03
Small eigenvalue found = 6.808e-03
Small eigenvalue found = 9.509e-03
Small eigenvalue found = 1.781e-02
Small eigenvalue found = 2.198e-02
Small eigenvalue found = 2.674e-02
Small eigenvalue found = 2.974e-02
The first mode is                       ....  108
The number of degrees of freedom        ....  114

    -----------------------------------------------------------------
                    Redundant Internal Coordinates


    -----------------------------------------------------------------
         Definition                    Initial Value    Approx d2E/dq
    -----------------------------------------------------------------
      1. B(C   3,C   2)                  1.4840         0.442344   
      2. B(C   5,C   4)                  1.3947         0.614072   
      3. B(C   5,C   3)                  1.4071         0.586819   
      4. B(C   7,C   6)                  1.4007         0.600656   
      5. B(C   7,C   2)                  1.4028         0.596175   
      6. B(C   8,C   2)                  1.4149         0.570099   
      7. B(C   8,O   0)                  1.3622         0.619733   
      8. B(C   9,C   3)                  1.4037         0.594148   
      9. B(C  10,O   1)                  1.3604         0.623877   
     10. B(C  10,C   4)                  1.4087         0.583364   
     11. B(C  11,C   4)                  1.5136         0.396846   
     12. B(C  12,C   6)                  1.5183         0.390004   
     13. B(C  13,C   6)                  1.3979         0.606941   
     14. B(C  14,C  10)                  1.3984         0.605860   
     15. B(C  14,C   9)                  1.3943         0.614962   
     16. B(C  15,C  13)                  1.3957         0.611851   
     17. B(C  15,C   8)                  1.3983         0.606119   
     18. B(C  16,C  11)                  1.5091         0.403414   
     19. B(C  17,C  12)                  1.5048         0.409811   
     20. B(C  18,C  16)                  1.3348         0.765340   
     21. B(C  19,C  17)                  1.3358         0.762555   
     22. B(H  20,C   5)                  1.0904         0.359581   
     23. B(H  21,C   7)                  1.0924         0.356883   
     24. B(H  22,C   9)                  1.0920         0.357462   
     25. B(H  23,C  11)                  1.1033         0.342961   
     26. B(H  24,C  11)                  1.1007         0.346201   
     27. B(H  25,C  12)                  1.1041         0.341902   
     28. B(H  26,C  12)                  1.1046         0.341299   
     29. B(H  27,C  13)                  1.0935         0.355477   
     30. B(H  28,C  14)                  1.0949         0.353620   
     31. B(H  29,C  15)                  1.0951         0.353384   
     32. B(H  30,C  16)                  1.0977         0.350098   
     33. B(H  31,C  17)                  1.0975         0.350296   
     34. B(H  32,O   0)                  0.9660         0.508632   
     35. B(H  33,O   1)                  0.9659         0.508835   
     36. B(H  34,C  18)                  1.0939         0.354942   
     37. B(H  35,C  18)                  1.0948         0.353802   
     38. B(H  36,C  19)                  1.0937         0.355262   
     39. B(H  37,C  19)                  1.0957         0.352669   
     40. B(O  38,H  29)                  2.6368         0.001098   
     41. B(O  38,H  32)                  2.3611         0.003024   
     42. B(O  39,H  29)                  2.6046         0.001236   
     43. B(O  39,H  32)                  2.3141         0.003594   
     44. B(O  39,O  38)                  1.1953         1.024673   
     45. A(C   8,O   0,H  32)          108.9796         0.368691   
     46. A(C  10,O   1,H  33)          109.3151         0.369139   
     47. A(C   7,C   2,C   8)          117.4059         0.424585   
     48. A(C   3,C   2,C   7)          120.1702         0.405856   
     49. A(C   3,C   2,C   8)          122.4149         0.402665   
     50. A(C   5,C   3,C   9)          117.5178         0.426527   
     51. A(C   2,C   3,C   5)          122.1802         0.404724   
     52. A(C   2,C   3,C   9)          120.2810         0.405612   
     53. A(C  10,C   4,C  11)          119.7703         0.396651   
     54. A(C   5,C   4,C  11)          121.6874         0.400244   
     55. A(C   5,C   4,C  10)          118.4985         0.428602   
     56. A(C   4,C   5,H  20)          118.3514         0.352250   
     57. A(C   3,C   5,H  20)          119.0704         0.349559   
     58. A(C   3,C   5,C   4)          122.5773         0.429057   
     59. A(C   7,C   6,C  12)          120.4342         0.397475   
     60. A(C   7,C   6,C  13)          117.9228         0.429953   
     61. A(C  12,C   6,C  13)          121.6428         0.398202   
     62. A(C   2,C   7,H  21)          118.1759         0.350048   
     63. A(C   2,C   7,C   6)          123.2042         0.428574   
     64. A(C   6,C   7,H  21)          118.6023         0.350491   
     65. A(O   0,C   8,C   2)          118.6821         0.424756   
     66. A(C   2,C   8,C  15)          120.1059         0.425844   
     67. A(O   0,C   8,C  15)          121.2095         0.429444   
     68. A(C  14,C   9,H  22)          119.2081         0.351984   
     69. A(C   3,C   9,C  14)          121.0481         0.430125   
     70. A(C   3,C   9,H  22)          119.7350         0.349943   
     71. A(O   1,C  10,C   4)          117.6152         0.427018   
     72. A(O   1,C  10,C  14)          122.3809         0.429925   
     73. A(C   4,C  10,C  14)          120.0031         0.427569   
     74. A(C   4,C  11,C  16)          111.5484         0.372010   
     75. A(H  23,C  11,H  24)          107.7102         0.286853   
     76. A(C  16,C  11,H  24)          109.5196         0.326324   
     77. A(C  16,C  11,H  23)          109.3439         0.325819   
     78. A(C   4,C  11,H  23)          108.5758         0.324941   
     79. A(C   4,C  11,H  24)          110.0558         0.325444   
     80. A(C   6,C  12,C  17)          113.0517         0.371903   
     81. A(H  25,C  12,H  26)          106.4807         0.286078   
     82. A(C   6,C  12,H  26)          109.9977         0.323756   
     83. A(C  17,C  12,H  25)          109.4158         0.326498   
     84. A(C   6,C  12,H  25)          108.5301         0.323850   
     85. A(C  17,C  12,H  26)          109.1510         0.326403   
     86. A(C   6,C  13,C  15)          120.4899         0.431381   
     87. A(C  15,C  13,H  27)          119.4756         0.351351   
     88. A(C   6,C  13,H  27)          120.0345         0.350873   
     89. A(C  10,C  14,H  28)          119.5690         0.350458   
     90. A(C   9,C  14,H  28)          120.0741         0.351342   
     91. A(C   9,C  14,C  10)          120.3542         0.431636   
     92. A(C  13,C  15,H  29)          120.0073         0.351001   
     93. A(C   8,C  15,H  29)          119.1231         0.350443   
     94. A(C   8,C  15,C  13)          120.8690         0.431276   
     95. A(C  11,C  16,C  18)          125.1355         0.417367   
     96. A(C  18,C  16,H  30)          119.5558         0.364034   
     97. A(C  11,C  16,H  30)          115.2814         0.326926   
     98. A(C  12,C  17,C  19)          125.1204         0.418267   
     99. A(C  19,C  17,H  31)          119.3595         0.363842   
    100. A(C  12,C  17,H  31)          115.5080         0.327805   
    101. A(H  34,C  18,H  35)          117.2091         0.289380   
    102. A(C  16,C  18,H  35)          121.2264         0.364690   
    103. A(C  16,C  18,H  34)          121.5616         0.364891   
    104. A(H  36,C  19,H  37)          116.9918         0.289275   
    105. A(C  17,C  19,H  37)          121.3470         0.364263   
    106. A(C  17,C  19,H  36)          121.6610         0.364720   
    107. A(O  38,H  29,O  39)           26.3564         0.103712   
    108. A(C  15,H  29,O  38)          140.5819         0.142541   
    109. A(C  15,H  29,O  39)          139.5844         0.143992   
    110. A(O   0,H  32,O  39)          161.0962         0.164148   
    111. A(O  38,H  32,O  39)           29.6057         0.112558   
    112. A(O   0,H  32,O  38)          166.7792         0.161268   
    113. A(H  29,O  38,H  32)           52.6982         0.107014   
    114. A(H  29,O  38,O  39)           75.3201         0.166467   
    115. A(H  32,O  38,O  39)           73.0184         0.186425   
    116. A(H  29,O  39,H  32)           53.5770         0.108240   
    117. A(H  29,O  39,O  38)           78.3235         0.168568   
    118. A(H  32,O  39,O  38)           77.3759         0.190308   
    119. D(C   5,C   3,C   2,C   7)   -139.0087         0.013348   
    120. D(C   9,C   3,C   2,C   7)     39.2822         0.013348   
    121. D(C   9,C   3,C   2,C   8)   -139.5968         0.013348   
    122. D(C   5,C   3,C   2,C   8)     42.1123         0.013348   
    123. D(H  20,C   5,C   4,C  11)     -2.4894         0.026063   
    124. D(H  20,C   5,C   3,C   2)     -1.6088         0.023685   
    125. D(H  20,C   5,C   4,C  10)    179.9248         0.026063   
    126. D(C   4,C   5,C   3,C   2)    178.0425         0.023685   
    127. D(C   3,C   5,C   4,C  10)      0.2712         0.026063   
    128. D(C   4,C   5,C   3,C   9)     -0.2934         0.023685   
    129. D(H  20,C   5,C   3,C   9)   -179.9446         0.023685   
    130. D(C   3,C   5,C   4,C  11)    177.8570         0.026063   
    131. D(C   6,C   7,C   2,C   8)      0.4536         0.024485   
    132. D(H  21,C   7,C   2,C   3)      3.0694         0.024485   
    133. D(C   6,C   7,C   2,C   3)   -178.4804         0.024485   
    134. D(H  21,C   7,C   6,C  12)     -2.0027         0.024875   
    135. D(C   2,C   7,C   6,C  13)     -0.5867         0.024875   
    136. D(H  21,C   7,C   6,C  13)    177.8573         0.024875   
    137. D(H  21,C   7,C   2,C   8)   -177.9966         0.024485   
    138. D(C   2,C   7,C   6,C  12)    179.5533         0.024875   
    139. D(C  15,C   8,C   2,C   7)     -0.0883         0.022295   
    140. D(C  15,C   8,C   2,C   3)    178.8200         0.022295   
    141. D(O   0,C   8,C   2,C   3)     -0.6170         0.022295   
    142. D(O   0,C   8,C   2,C   7)   -179.5253         0.022295   
    143. D(C  15,C   8,O   0,H  32)     -2.1803         0.028176   
    144. D(C   2,C   8,O   0,H  32)    177.2502         0.028176   
    145. D(H  22,C   9,C   3,C   5)   -178.6471         0.024311   
    146. D(C  14,C   9,C   3,C   5)      0.2666         0.024311   
    147. D(H  22,C   9,C   3,C   2)      2.9840         0.024311   
    148. D(C  14,C   9,C   3,C   2)   -178.1024         0.024311   
    149. D(C   4,C  10,O   1,H  33)   -179.7415         0.028582   
    150. D(C  14,C  10,C   4,C  11)   -177.8507         0.023393   
    151. D(C  14,C  10,C   4,C   5)     -0.2174         0.023393   
    152. D(O   1,C  10,C   4,C  11)      2.4711         0.023393   
    153. D(O   1,C  10,C   4,C   5)   -179.8955         0.023393   
    154. D(C  14,C  10,O   1,H  33)      0.5885         0.028582   
    155. D(H  24,C  11,C   4,C   5)    140.9906         0.011696   
    156. D(H  23,C  11,C   4,C  10)   -159.1205         0.011696   
    157. D(H  23,C  11,C   4,C   5)     23.3238         0.011696   
    158. D(C  16,C  11,C   4,C  10)     80.3216         0.011696   
    159. D(C  16,C  11,C   4,C   5)    -97.2341         0.011696   
    160. D(H  26,C  12,C   6,C   7)    -68.9642         0.011316   
    161. D(H  25,C  12,C   6,C  13)     -4.9471         0.011316   
    162. D(H  25,C  12,C   6,C   7)    174.9076         0.011316   
    163. D(C  17,C  12,C   6,C  13)   -126.5247         0.011316   
    164. D(C  17,C  12,C   6,C   7)     53.3300         0.011316   
    165. D(H  27,C  13,C   6,C  12)      0.2795         0.025427   
    166. D(H  27,C  13,C   6,C   7)   -179.5787         0.025427   
    167. D(C  15,C  13,C   6,C  12)   -179.7891         0.025427   
    168. D(C  15,C  13,C   6,C   7)      0.3527         0.025427   
    169. D(H  28,C  14,C  10,C   4)    179.6009         0.025332   
    170. D(H  28,C  14,C  10,O   1)     -0.7367         0.025332   
    171. D(C   9,C  14,C  10,C   4)      0.1998         0.025332   
    172. D(C   9,C  14,C  10,O   1)    179.8621         0.025332   
    173. D(H  28,C  14,C   9,H  22)     -0.7067         0.026143   
    174. D(H  28,C  14,C   9,C   3)   -179.6260         0.026143   
    175. D(C  10,C  14,C   9,H  22)    178.6914         0.026143   
    176. D(C  10,C  14,C   9,C   3)     -0.2278         0.026143   
    177. D(C   8,C  15,C  13,C   6)     -0.0125         0.025864   
    178. D(H  29,C  15,C   8,C   2)   -179.8595         0.025355   
    179. D(H  29,C  15,C   8,O   0)     -0.4370         0.025355   
    180. D(C  13,C  15,C   8,C   2)     -0.1232         0.025355   
    181. D(C  13,C  15,C   8,O   0)    179.2993         0.025355   
    182. D(H  29,C  15,C  13,H  27)     -0.3468         0.025864   
    183. D(H  29,C  15,C  13,C   6)    179.7214         0.025864   
    184. D(C   8,C  15,C  13,H  27)    179.9193         0.025864   
    185. D(H  30,C  16,C  11,H  23)    -56.1564         0.012069   
    186. D(H  30,C  16,C  11,C   4)     63.9506         0.012069   
    187. D(C  18,C  16,C  11,H  24)      7.9550         0.012069   
    188. D(C  18,C  16,C  11,H  23)    125.7631         0.012069   
    189. D(C  18,C  16,C  11,C   4)   -114.1299         0.012069   
    190. D(H  31,C  17,C  12,H  25)    -62.0054         0.012439   
    191. D(H  31,C  17,C  12,C   6)     59.0719         0.012439   
    192. D(C  19,C  17,C  12,H  26)      3.1143         0.012439   
    193. D(C  19,C  17,C  12,H  25)    119.2708         0.012439   
    194. D(C  19,C  17,C  12,C   6)   -119.6519         0.012439   
    195. D(H  35,C  18,C  16,H  30)   -178.3788         0.041939   
    196. D(H  35,C  18,C  16,C  11)     -0.3741         0.041939   
    197. D(H  34,C  18,C  16,H  30)      0.9903         0.041939   
    198. D(H  34,C  18,C  16,C  11)    178.9949         0.041939   
    199. D(H  37,C  19,C  17,H  31)   -179.3285         0.041604   
    200. D(H  37,C  19,C  17,C  12)     -0.6500         0.041604   
    201. D(H  36,C  19,C  17,H  31)      0.8340         0.041604   
    202. D(H  36,C  19,C  17,C  12)    179.5125         0.041604   
    203. D(O  38,H  29,C  15,C  13)   -157.9436         0.116035   
    204. D(O  38,H  29,C  15,C   8)     21.7949         0.116035   
    205. D(O  39,H  29,C  15,C  13)    160.4618         0.116035   
    206. D(O  39,H  29,C  15,C   8)    -19.7996         0.116035   
    207. D(O  38,H  32,O   0,C   8)    -61.5318         0.326669   
    208. D(O  39,H  32,O   0,C   8)     72.5459         0.326669   
    209. D(H  29,O  38,H  32,O  39)    -84.2346         0.001506   
    210. D(H  29,O  38,H  32,O   0)     67.6583         0.001506   
    211. D(O  39,O  38,H  32,O   0)    151.8929         0.001506   
    212. D(H  32,O  38,H  29,O  39)     79.6316         0.001501   
    213. D(H  32,O  38,H  29,C  15)    -24.5645         0.001501   
    214. D(O  39,O  38,H  29,C  15)   -104.1961         0.001501   
    215. D(H  29,O  39,O  38,H  32)    -54.8988         0.114558   
    216. D(H  32,O  39,O  38,H  29)     54.8988         0.114558   
    217. D(H  29,O  39,H  32,O  38)     84.6933         0.001508   
    218. D(H  29,O  39,H  32,O   0)    -75.8816         0.001508   
    219. D(O  38,O  39,H  32,O   0)   -160.5750         0.001508   
    220. D(H  32,O  39,H  29,O  38)    -82.8274         0.001501   
    221. D(H  32,O  39,H  29,C  15)     25.4600         0.001501   
    222. D(O  38,O  39,H  29,C  15)    108.2873         0.001501   
    -----------------------------------------------------------------

Number of atoms                         .... 40
Number of degrees of freedom            .... 222


         *************************************************************
         *                GEOMETRY OPTIMIZATION CYCLE   1            *
         *************************************************************
---------------------------------
CARTESIAN COORDINATES (ANGSTROEM)
---------------------------------
  O      0.171690    2.057250   -1.802720
  O     -4.093570   -1.399030    1.232660
  C      1.050350    0.444506   -0.274697
  C     -0.305395   -0.008963    0.123537
  C     -2.604710   -0.656007   -0.453420
  C     -1.339460   -0.192201   -0.812935
  C      3.494120    0.268234    0.005916
  C      2.187000   -0.132062    0.311259
  C      1.257720    1.472380   -1.224710
  C     -0.586309   -0.306190    1.466330
  C     -2.854160   -0.945741    0.902383
  C     -3.716930   -0.800485   -1.469750
  C      4.679640   -0.392949    0.686038
  C      3.663690    1.284460   -0.938877
  C     -1.842970   -0.770883    1.852320
  C      2.556440    1.878720   -1.546190
  C     -4.638150    0.394721   -1.456950
  C      4.666700   -1.892880    0.565789
  C     -5.920810    0.372055   -1.088330
  C      4.624100   -2.745810    1.592900
  H     -1.148610    0.030136   -1.863220
  H      2.042810   -0.949452    1.021550
  H      0.182952   -0.156000    2.226690
  H     -3.266380   -0.903905   -2.471510
  H     -4.296790   -1.713950   -1.267470
  H      5.607410    0.003244    0.237321
  H      4.705090   -0.115308    1.754870
  H      4.669290    1.619040   -1.208330
  H     -2.046610   -0.992006    2.905190
  H      2.698270    2.677350   -2.281970
  H     -4.175930    1.346010   -1.750680
  H      4.673210   -2.284920   -0.459296
  H      0.470608    2.763200   -2.390450
  H     -4.133630   -1.554310    2.185140
  H     -6.532080    1.279260   -1.086240
  H     -6.402140   -0.556626   -0.765117
  H      4.608970   -3.828600    1.439680
  H      4.605380   -2.389870    2.628980
  O      1.401730    4.700180   -3.368100
  O      1.398530    3.851370   -4.209730

----------------------------
CARTESIAN COORDINATES (A.U.)
----------------------------
  NO LB      ZA    FRAG     MASS         X           Y           Z
   0 O     8.0000    0    15.999    0.324447    3.887639   -3.406647
   1 O     8.0000    0    15.999   -7.735726   -2.643784    2.329390
   2 C     6.0000    0    12.011    1.984874    0.839995   -0.519102
   3 C     6.0000    0    12.011   -0.577113   -0.016938    0.233451
   4 C     6.0000    0    12.011   -4.922189   -1.239674   -0.856840
   5 C     6.0000    0    12.011   -2.531213   -0.363207   -1.536225
   6 C     6.0000    0    12.011    6.602930    0.506889    0.011180
   7 C     6.0000    0    12.011    4.132831   -0.249561    0.588194
   8 C     6.0000    0    12.011    2.376746    2.782395   -2.314366
   9 C     6.0000    0    12.011   -1.107963   -0.578615    2.770962
  10 C     6.0000    0    12.011   -5.393581   -1.787191    1.705257
  11 C     6.0000    0    12.011   -7.023980   -1.512697   -2.777425
  12 C     6.0000    0    12.011    8.843238   -0.742566    1.296424
  13 C     6.0000    0    12.011    6.923371    2.427278   -1.774220
  14 C     6.0000    0    12.011   -3.482709   -1.456758    3.500378
  15 C     6.0000    0    12.011    4.830971    3.550266   -2.921876
  16 C     6.0000    0    12.011   -8.764833    0.745915   -2.753236
  17 C     6.0000    0    12.011    8.818785   -3.577025    1.069186
  18 C     6.0000    0    12.011  -11.188709    0.703082   -2.056646
  19 C     6.0000    0    12.011    8.738283   -5.188829    3.010145
  20 H     1.0000    0     1.008   -2.170558    0.056949   -3.520976
  21 H     1.0000    0     1.008    3.860351   -1.794204    1.930450
  22 H     1.0000    0     1.008    0.345729   -0.294797    4.207834
  23 H     1.0000    0     1.008   -6.172564   -1.708133   -4.670477
  24 H     1.0000    0     1.008   -8.119756   -3.238896   -2.395171
  25 H     1.0000    0     1.008   10.596469    0.006130    0.448472
  26 H     1.0000    0     1.008    8.891332   -0.217901    3.316224
  27 H     1.0000    0     1.008    8.823679    3.059542   -2.283413
  28 H     1.0000    0     1.008   -3.867532   -1.874620    5.490013
  29 H     1.0000    0     1.008    5.098991    5.059458   -4.312298
  30 H     1.0000    0     1.008   -7.891364    2.543590   -3.308306
  31 H     1.0000    0     1.008    8.831087   -4.317873   -0.867944
  32 H     1.0000    0     1.008    0.889320    5.221691   -4.517296
  33 H     1.0000    0     1.008   -7.811429   -2.937220    4.129316
  34 H     1.0000    0     1.008  -12.343842    2.417451   -2.052696
  35 H     1.0000    0     1.008  -12.098291   -1.051871   -1.445862
  36 H     1.0000    0     1.008    8.709691   -7.235005    2.720601
  37 H     1.0000    0     1.008    8.702907   -4.516200    4.968052
  38 O     8.0000    0    15.999    2.648886    8.882053   -6.364787
  39 O     8.0000    0    15.999    2.642839    7.278035   -7.955237

--------------------------------
INTERNAL COORDINATES (ANGSTROEM)
--------------------------------
 O      0   0   0     0.000000000000     0.00000000     0.00000000
 O      1   0   0     6.273104976836     0.00000000     0.00000000
 C      1   2   0     2.389108807414    64.44752623     0.00000000
 C      3   1   2     1.484004365810    92.40215559   359.12208104
 C      2   1   3     2.368892788737    19.16907795   264.50136248
 C      5   2   1     1.394713089980   149.08605384    47.30340175
 C      3   1   2     2.466136104649   119.04307843   180.43286531
 C      7   3   1     1.400726215099    28.42040436   180.00779755
 C      1   2   3     1.362214974921    95.75072133     0.18622401
 C      4   3   1     1.403691421137   120.28099236   220.09430860
 C      2   1   3     1.360401029972    22.99855626     3.26976214
 C      5   2   1     1.513550094904    89.20613490   229.26969973
 C      7   3   1     1.518284085662   148.85324233   179.26318151
 C      7   3   1     1.397892370973    89.50366465   359.48939133
 C     10   4   3     1.394318734461   121.04811955   181.89763239
 C     14   7   3     1.395699319363   120.48993951     0.07350324
 C     12   5   2     1.509081677987   111.54839197    81.57886834
 C     13   7   3     1.504799079732   113.05166294    53.74096847
 C     17  12   5     1.334770065426   125.13546892   245.87008318
 C     18  13   7     1.335762460627   125.12044144   240.34810303
 H      6   5   2     1.090392610620   118.35141301   179.82135391
 H      8   7   3     1.092442434585   118.60228493   178.44396639
 H     10   4   3     1.092001305778   119.73503627     2.98401560
 H     12   5   2     1.103274261687   108.57582802   202.13676684
 H     12   5   2     1.100714824205   110.05575445   319.80354641
 H     13   7   3     1.104116394334   108.53005844   175.31858898
 H     13   7   3     1.104596791415   109.99770879   291.44679911
 H     14   7   3     1.093517286379   120.03445985   180.14206741
 H     15  10   4     1.094942860440   120.07406007   180.37403772
 H     16  14   7     1.095124574740   120.00731731   179.72142863
 H     17  12   5     1.097668166078   115.28142282    63.95056746
 H     18  13   7     1.097514008532   115.50802162    59.07192965
 H      1   2   3     0.965993750562   155.15440951   185.65381113
 H      2   1   3     0.965885517233   126.43655883    49.87276035
 H     19  17  12     1.093927005346   121.56158334   178.99491645
 H     19  17  12     1.094803001471   121.22644356   359.62591270
 H     20  18  13     1.093681612445   121.66099839   179.51249436
 H     20  18  13     1.095675813551   121.34701835   359.34998701
 O     33   1   2     2.361075861082   166.77919045   112.71446411
 O     39  33   1     1.195336652580    73.01840346   151.89293339

---------------------------
INTERNAL COORDINATES (A.U.)
---------------------------
 O      0   0   0     0.000000000000     0.00000000     0.00000000
 O      1   0   0    11.854450415558     0.00000000     0.00000000
 C      1   2   0     4.514761350152    64.44752623     0.00000000
 C      3   1   2     2.804361832924    92.40215559   359.12208104
 C      2   1   3     4.476558611333    19.16907795   264.50136248
 C      5   2   1     2.635625775457   149.08605384    47.30340175
 C      3   1   2     4.660321846762   119.04307843   180.43286531
 C      7   3   1     2.646988935141    28.42040436   180.00779755
 C      1   2   3     2.574213238128    95.75072133     0.18622401
 C      4   3   1     2.652592362484   120.28099236   220.09430860
 C      2   1   3     2.570785378952    22.99855626     3.26976214
 C      5   2   1     2.860195169339    89.20613490   229.26969973
 C      7   3   1     2.869141115391   148.85324233   179.26318151
 C      7   3   1     2.641633745837    89.50366465   359.48939133
 C     10   4   3     2.634880551528   121.04811955   181.89763239
 C     14   7   3     2.637489478895   120.48993951     0.07350324
 C     12   5   2     2.851751085114   111.54839197    81.57886834
 C     13   7   3     2.843658147270   113.05166294    53.74096847
 C     17  12   5     2.522349875410   125.13546892   245.87008318
 C     18  13   7     2.524225230558   125.12044144   240.34810303
 H      6   5   2     2.060543412523   118.35141301   179.82135391
 H      8   7   3     2.064417018439   118.60228493   178.44396639
 H     10   4   3     2.063583405805   119.73503627     2.98401560
 H     12   5   2     2.084886205192   108.57582802   202.13676684
 H     12   5   2     2.080049569295   110.05575445   319.80354641
 H     13   7   3     2.086477605265   108.53005844   175.31858898
 H     13   7   3     2.087385424183   109.99770879   291.44679911
 H     14   7   3     2.066448193964   120.03445985   180.14206741
 H     15  10   4     2.069142138524   120.07406007   180.37403772
 H     16  14   7     2.069485528786   120.00731731   179.72142863
 H     17  12   5     2.074292219811   115.28142282    63.95056746
 H     18  13   7     2.074000904268   115.50802162    59.07192965
 H      1   2   3     1.825463635641   155.15440951   185.65381113
 H      2   1   3     1.825259104291   126.43655883    49.87276035
 H     19  17  12     2.067222450604   121.56158334   178.99491645
 H     19  17  12     2.068877843375   121.22644356   359.62591270
 H     20  18  13     2.066758725226   121.66099839   179.51249436
 H     20  18  13     2.070527219172   121.34701835   359.34998701
 O     33   1   2     4.461786758857   166.77919045   112.71446411
 O     39  33   1     2.258858911213    73.01840346   151.89293339

---------------------
BASIS SET INFORMATION
---------------------
There are 3 groups of distinct atoms

 Group   1 Type O   : 11s6p2d1f contracted to 5s3p2d1f pattern {62111/411/11/1}
 Group   2 Type C   : 11s6p2d1f contracted to 5s3p2d1f pattern {62111/411/11/1}
 Group   3 Type H   : 5s1p contracted to 3s1p pattern {311/1}

Atom   0O    basis set group =>   1
Atom   1O    basis set group =>   1
Atom   2C    basis set group =>   2
Atom   3C    basis set group =>   2
Atom   4C    basis set group =>   2
Atom   5C    basis set group =>   2
Atom   6C    basis set group =>   2
Atom   7C    basis set group =>   2
Atom   8C    basis set group =>   2
Atom   9C    basis set group =>   2
Atom  10C    basis set group =>   2
Atom  11C    basis set group =>   2
Atom  12C    basis set group =>   2
Atom  13C    basis set group =>   2
Atom  14C    basis set group =>   2
Atom  15C    basis set group =>   2
Atom  16C    basis set group =>   2
Atom  17C    basis set group =>   2
Atom  18C    basis set group =>   2
Atom  19C    basis set group =>   2
Atom  20H    basis set group =>   3
Atom  21H    basis set group =>   3
Atom  22H    basis set group =>   3
Atom  23H    basis set group =>   3
Atom  24H    basis set group =>   3
Atom  25H    basis set group =>   3
Atom  26H    basis set group =>   3
Atom  27H    basis set group =>   3
Atom  28H    basis set group =>   3
Atom  29H    basis set group =>   3
Atom  30H    basis set group =>   3
Atom  31H    basis set group =>   3
Atom  32H    basis set group =>   3
Atom  33H    basis set group =>   3
Atom  34H    basis set group =>   3
Atom  35H    basis set group =>   3
Atom  36H    basis set group =>   3
Atom  37H    basis set group =>   3
Atom  38O    basis set group =>   1
Atom  39O    basis set group =>   1
---------------------------------
AUXILIARY/J BASIS SET INFORMATION
---------------------------------
There are 3 groups of distinct atoms

 Group   1 Type O   : 12s5p4d2f1g contracted to 6s4p3d1f1g pattern {711111/2111/211/2/1}
 Group   2 Type C   : 12s5p4d2f1g contracted to 6s4p3d1f1g pattern {711111/2111/211/2/1}
 Group   3 Type H   : 5s2p1d contracted to 3s1p1d pattern {311/2/1}

Atom   0O    basis set group =>   1
Atom   1O    basis set group =>   1
Atom   2C    basis set group =>   2
Atom   3C    basis set group =>   2
Atom   4C    basis set group =>   2
Atom   5C    basis set group =>   2
Atom   6C    basis set group =>   2
Atom   7C    basis set group =>   2
Atom   8C    basis set group =>   2
Atom   9C    basis set group =>   2
Atom  10C    basis set group =>   2
Atom  11C    basis set group =>   2
Atom  12C    basis set group =>   2
Atom  13C    basis set group =>   2
Atom  14C    basis set group =>   2
Atom  15C    basis set group =>   2
Atom  16C    basis set group =>   2
Atom  17C    basis set group =>   2
Atom  18C    basis set group =>   2
Atom  19C    basis set group =>   2
Atom  20H    basis set group =>   3
Atom  21H    basis set group =>   3
Atom  22H    basis set group =>   3
Atom  23H    basis set group =>   3
Atom  24H    basis set group =>   3
Atom  25H    basis set group =>   3
Atom  26H    basis set group =>   3
Atom  27H    basis set group =>   3
Atom  28H    basis set group =>   3
Atom  29H    basis set group =>   3
Atom  30H    basis set group =>   3
Atom  31H    basis set group =>   3
Atom  32H    basis set group =>   3
Atom  33H    basis set group =>   3
Atom  34H    basis set group =>   3
Atom  35H    basis set group =>   3
Atom  36H    basis set group =>   3
Atom  37H    basis set group =>   3
Atom  38O    basis set group =>   1
Atom  39O    basis set group =>   1


           ************************************************************
           *        Program running with 28 parallel MPI-processes    *
           *              working on a common directory               *
           ************************************************************
------------------------------------------------------------------------------
                             ORCA STARTUP CALCULATIONS
                           -- RI-GTO INTEGRALS CHOSEN --
------------------------------------------------------------------------------
------------------------------------------------------------------------------
                   ___                                                        
                  /   \      - P O W E R E D   B Y -                         
                 /     \                                                     
                 |  |  |   _    _      __       _____    __    __             
                 |  |  |  | |  | |    /  \     |  _  \  |  |  /  |          
                  \  \/   | |  | |   /    \    | | | |  |  | /  /          
                 / \  \   | |__| |  /  /\  \   | |_| |  |  |/  /          
                |  |  |   |  __  | /  /__\  \  |    /   |      \           
                |  |  |   | |  | | |   __   |  |    \   |  |\   \          
                \     /   | |  | | |  |  |  |  | |\  \  |  | \   \       
                 \___/    |_|  |_| |__|  |__|  |_| \__\ |__|  \__/        
                                                                              
                      - O R C A' S   B I G   F R I E N D -                    
                                      &                                       
                       - I N T E G R A L  F E E D E R -                       
                                                                              
 v1 FN, 2020, v2 2021, v3 2022-2024                                           
------------------------------------------------------------------------------


----------------------
SHARK INTEGRAL PACKAGE
----------------------

Number of atoms                             ...     40
Number of basis functions                   ...    790
Number of shells                            ...    314
Maximum angular momentum                    ...      3
Integral batch strategy                     ... SHARK/LIBINT Hybrid
RI-J (if used) integral strategy            ... SPLIT-RIJ (Revised 2003 algorithm where possible)
Printlevel                                  ...      1
Contraction scheme used                     ... SEGMENTED contraction
Prescreening option                         ... SCHWARTZ
   Thresh                                   ... 1.000e-10
   Tcut                                     ... 1.000e-11
   Tpresel                                  ... 1.000e-11 
Coulomb Range Separation                    ... NOT USED
Exchange Range Separation                   ... Long Range
   Mu parameter                             ... 2.500e-01
   Scaling (regular/separated)              ... 1.957e-01 8.043e-01
Multipole approximations                    ... NOT USED
Finite Nucleus Model                        ... NOT USED
CABS basis                                  ... NOT available
Auxiliary Coulomb fitting basis             ... AVAILABLE
   # of basis functions in Aux-J            ...   1276
   # of shells in Aux-J                     ...    420
   Maximum angular momentum in Aux-J        ...      4
Auxiliary J/K fitting basis                 ... NOT available
Auxiliary Correlation fitting basis         ... NOT available
Auxiliary 'external' fitting basis          ... NOT available

Checking pre-screening integrals            ... done (  0.0 sec) Dimension = 314
Check shell pair data                       ... done (  0.0 sec)
Shell pair information
Shell pair cut-off parameter TPreSel        ...   1.0e-11
Total number of shell pairs                 ...     49455
Shell pairs after pre-screening             ...     31201
Total number of primitive shell pairs       ...    150964
Primitive shell pairs kept                  ...     62976
          la=0 lb=0:   8243 shell pairs
          la=1 lb=0:   9140 shell pairs
          la=1 lb=1:   2551 shell pairs
          la=2 lb=0:   4361 shell pairs
          la=2 lb=1:   2443 shell pairs
          la=2 lb=2:    599 shell pairs
          la=3 lb=0:   2029 shell pairs
          la=3 lb=1:   1157 shell pairs
          la=3 lb=2:    542 shell pairs
          la=3 lb=3:    136 shell pairs

Calculating one electron integrals          ... done (  0.0 sec)
Calculating RI/J V-Matrix + Cholesky decomp.... done (  0.1 sec)
Calculating Nuclear repulsion               ... done (  0.0 sec) ENN=   1637.970928676052 Eh

Diagonalization of the overlap matrix:
Smallest eigenvalue                        ... 6.584e-06
Time for diagonalization                   ...    0.091 sec
Threshold for overlap eigenvalues          ... 1.000e-07
Number of eigenvalues below threshold      ... 0
Time for construction of square roots      ...    0.047 sec
Total time needed                          ...    0.155 sec

-------------------
DFT GRID GENERATION
-------------------

General Integration Accuracy     IntAcc      ... 4.388
Radial Grid Type                 RadialGrid  ... OptM3 with GC (2021)
Angular Grid (max. ang.)         AngularGrid ... 4 (Lebedev-302)
Angular grid pruning method      GridPruning ... 4 (adaptive)
Weight generation scheme         WeightScheme... mBecke (2022)
Basis function cutoff            BFCut       ... 1.0000e-10
Integration weight cutoff        WCut        ... 1.0000e-14
Partially contracted basis set               ... off
Rotationally invariant grid construction     ... off
Angular grids for H and He will be reduced by one unit

Total number of grid points                  ...   189348
Total number of batches                      ...     2979
Average number of points per batch           ...       63
Average number of grid points per atom       ...     4734

--------------------
COSX GRID GENERATION
--------------------

GRIDX 1
-------
General Integration Accuracy     IntAcc      ... 3.816
Radial Grid Type                 RadialGrid  ... OptM3 with GC (2021)
Angular Grid (max. ang.)         AngularGrid ... 1 (Lebedev-50)
Angular grid pruning method      GridPruning ... 4 (adaptive)
Weight generation scheme         WeightScheme... mBecke (2022)
Basis function cutoff            BFCut       ... 1.0000e-10
Integration weight cutoff        WCut        ... 1.0000e-14
Partially contracted basis set               ... on
Rotationally invariant grid construction     ... off
Angular grids for H and He will be reduced by one unit

Total number of grid points                  ...    24060
Total number of batches                      ...      213
Average number of points per batch           ...      112
Average number of grid points per atom       ...      602
UseSFitting                                  ... on

GRIDX 2
-------
General Integration Accuracy     IntAcc      ... 4.020
Radial Grid Type                 RadialGrid  ... OptM3 with GC (2021)
Angular Grid (max. ang.)         AngularGrid ... 2 (Lebedev-110)
Angular grid pruning method      GridPruning ... 4 (adaptive)
Weight generation scheme         WeightScheme... mBecke (2022)
Basis function cutoff            BFCut       ... 1.0000e-10
Integration weight cutoff        WCut        ... 1.0000e-14
Partially contracted basis set               ... on
Rotationally invariant grid construction     ... off
Angular grids for H and He will be reduced by one unit

Total number of grid points                  ...    52198
Total number of batches                      ...      426
Average number of points per batch           ...      122
Average number of grid points per atom       ...     1305
UseSFitting                                  ... on

GRIDX 3
-------
General Integration Accuracy     IntAcc      ... 4.338
Radial Grid Type                 RadialGrid  ... OptM3 with GC (2021)
Angular Grid (max. ang.)         AngularGrid ... 3 (Lebedev-194)
Angular grid pruning method      GridPruning ... 4 (adaptive)
Weight generation scheme         WeightScheme... mBecke (2022)
Basis function cutoff            BFCut       ... 1.0000e-10
Integration weight cutoff        WCut        ... 1.0000e-14
Partially contracted basis set               ... on
Rotationally invariant grid construction     ... off
Angular grids for H and He will be reduced by one unit

Total number of grid points                  ...   114255
Total number of batches                      ...      911
Average number of points per batch           ...      125
Average number of grid points per atom       ...     2856
UseSFitting                                  ... on
Initializing property integral containers    ... done (  0.0 sec)

SHARK setup successfully completed in   2.9 seconds

Maximum memory used throughout the entire STARTUP-calculation: 74.3 MB


           ************************************************************
           *        Program running with 28 parallel MPI-processes    *
           *              working on a common directory               *
           ************************************************************
-------------------------------------------------------------------------------
                                 ORCA GUESS
                   Start orbitals & Density for SCF / CASSCF
-------------------------------------------------------------------------------

------------
SCF SETTINGS
------------
Hamiltonian:
 Density Functional     Method          .... DFT(GTOs)
 Exchange Functional    Exchange        .... WB97X-D3
 Correlation Functional Correlation     .... WB97X-D3
 Gradients option       PostSCFGGA      .... off
 Hybrid DFT is turned on
   Fraction HF Exchange ScalHFX         ....  0.195728
   Scaling of DF-GGA-X  ScalDFX         ....  0.000000
   Scaling of DF-GGA-C  ScalDFC         ....  1.000000
   Scaling of DF-LDA-C  ScalLDAC        ....  1.000000
   Perturbative correction              ....  0.000000
 Long-range corrected/Screened/Range-Separated Hybrid DFT is turned on
   Amount of maximum screened exact exchange              ....  0.804272
   Range separation parameter mu (erf(mu*r12)/r12)        ....  0.250000
 RI-approximation to the Coulomb term is turned on
   Number of AuxJ basis functions       .... 1276
   RIJ-COSX (HFX calculated with COS-X)).... on


General Settings:
 Integral files         IntName         .... honokiol_o2_9
 Hartree-Fock type      HFTyp           .... UHF
 Total Charge           Charge          ....   -1
 Multiplicity           Mult            ....    2
 Number of Electrons    NEL             ....  159
 Basis Dimension        Dim             ....  790
 Nuclear Repulsion      ENuc            ....   1637.9709286761 Eh

Convergence Acceleration:
 AO-DIIS                CNVDIIS         .... on
   Start iteration      DIISMaxIt       ....    12
   Startup error        DIISStart       ....  0.200000
   # of expansion vecs  DIISMaxEq       ....     5
   Bias factor          DIISBfac        ....   1.050
   Max. coefficient     DIISMaxC        ....  10.000
 MO-DIIS                CNVKDIIS        .... off
 Trust-Rad. Augm. Hess. CNVTRAH         .... auto
   Auto Start mean grad. ratio tolernc. ....  1.125000
   Auto Start start iteration           ....    50
   Auto Start num. interpolation iter.  ....    10
   Max. Number of Micro iterations      ....    24
   Max. Number of Macro iterations      .... Maxiter - #DIIS iter
   Number of Davidson start vectors     ....     2
   Converg. threshold    (grad. norm)   ....   5.000e-05
   Grad. Scal. Fac. for Micro threshold ....   0.100
   Minimum threshold for Micro iter.    ....   1.000e-02
   NR start threshold (gradient norm)   ....   1.000e-04
   Initial trust radius                 ....   0.400
   Minimum AH scaling param. (alpha)    ....   1.000
   Maximum AH scaling param. (alpha)    .... 1000.000
   Quad. conv. algorithm                .... NR
   White noise on init. David. guess    .... on
   Maximum white noise                  ....   0.010
   Pseudo random numbers                .... off
   Inactive MOs                         .... canonical
   Orbital update algorithm             .... Taylor
   Preconditioner                       .... Diag
   Full preconditioner red. dimension   ....   250
 SOSCF                  CNVSOSCF        .... on
   Start iteration      SOSCFMaxIt      ....   150
   Startup grad/error   SOSCFStart      ....  0.003300
   Hessian update       SOSCFHessUp     .... L-BFGS
 Level Shifting         CNVShift        .... on
   Level shift para.    LevelShift      ....    0.2500
   Turn off err/grad.   ShiftErr        ....    0.0010
 Zerner damping         CNVZerner       .... off
 Static damping         CNVDamp         .... on
   Fraction old density DampFac         ....    0.7000
   Max. Damping (<1)    DampMax         ....    0.9800
   Min. Damping (>=0)   DampMin         ....    0.0000
   Turn off err/grad.   DampErr         ....    0.1000

SCF Procedure:
 Maximum # iterations   MaxIter         ....   125
 SCF integral mode      SCFMode         .... Direct
   Integral package                     .... SHARK and LIBINT hybrid scheme
 Reset frequency        DirectResetFreq ....    20
 Integral Threshold     Thresh          ....  1.000e-10 Eh
 Primitive CutOff       TCut            ....  1.000e-11 Eh

Convergence Tolerance:
 Convergence Check Mode ConvCheckMode   .... Total+1el-Energy
 Convergence forced     ConvForced      .... 0
 Energy Change          TolE            ....  1.000e-06 Eh
 1-El. energy change                    ....  1.000e-03 Eh
 Orbital Gradient       TolG            ....  5.000e-05
 Orbital Rotation angle TolX            ....  5.000e-05
 DIIS Error             TolErr          ....  1.000e-05

------------------------------
INITIAL GUESS: MODEL POTENTIAL
------------------------------
Loading Hartree-Fock densities                     ... done
Calculating cut-offs                               ... done
Initializing the effective Hamiltonian             ... done
Setting up the integral package (SHARK)            ... done
Starting the Coulomb interaction                   ... done (   0.1 sec)
Making the grid                                    ... done (   0.2 sec)
Mapping shells                                     ... done
Starting the XC term evaluation                    ... done (   0.1 sec)
  promolecular density results
     # of electrons  =    157.992961688
     EX              =   -129.871878631
     EC              =     -5.255448528
     EX+EC           =   -135.127327159
Transforming the Hamiltonian                       ... done (   0.1 sec)
Diagonalizing the Hamiltonian                      ... done (   0.1 sec)
Back transforming the eigenvectors                 ... done (   0.1 sec)
Now organizing SCF variables                       ... done
                      ------------------
                      INITIAL GUESS DONE (   0.8 sec)
                      ------------------
             **** ENERGY FILE WAS UPDATED (honokiol_o2_9.en.tmp) ****
Finished Guess after   1.9 sec
Maximum memory used throughout the entire GUESS-calculation: 57.5 MB


           ************************************************************
           *        Program running with 28 parallel MPI-processes    *
           *              working on a common directory               *
           ************************************************************

-------------------------------------------------------------------------------------------
                                      ORCA LEAN-SCF
                              memory conserving SCF solver
-------------------------------------------------------------------------------------------

----------------------------------------D-I-I-S--------------------------------------------
Iteration    Energy (Eh)           Delta-E    RMSDP     MaxDP     DIISErr   Damp  Time(sec)
-------------------------------------------------------------------------------------------
               ***  Starting incremental Fock matrix formation  ***
    1    -997.0252011034083353     0.00e+00  5.69e-04  4.82e-02  1.05e-01  0.700   6.7
Warning: op=1 Small HOMO/LUMO gap (   0.087) - skipping pre-diagonalization
         Will do a full diagonalization
    2    -997.2459334153688815    -2.21e-01  6.13e-04  6.36e-02  5.74e-02  0.700   4.6
                               ***Turning on AO-DIIS***
    3    -997.3636161783877014    -1.18e-01  3.14e-04  2.69e-02  2.85e-02  0.700   3.9
    4    -997.4343325506131350    -7.07e-02  6.93e-04  5.76e-02  1.96e-02  0.000   3.7
                              *** Initializing SOSCF ***
---------------------------------------S-O-S-C-F--------------------------------------
Iteration    Energy (Eh)           Delta-E    RMSDP     MaxDP     MaxGrad    Time(sec)
--------------------------------------------------------------------------------------
    5    -997.5866374244335475    -1.52e-01  8.86e-05  1.16e-02  1.91e-03     4.4
               *** Restarting incremental Fock matrix formation ***
    6    -997.5868934887319028    -2.56e-04  1.25e-04  8.40e-03  1.07e-03     6.5
    7    -997.5869787474323402    -8.53e-05  8.36e-05  9.05e-03  5.84e-04     5.0
    8    -997.5870212350084785    -4.25e-05  4.38e-05  3.27e-03  3.00e-04     4.9
    9    -997.5870257826757097    -4.55e-06  3.79e-05  3.92e-03  1.84e-04     4.6
   10    -997.5870279566349836    -2.17e-06  1.98e-05  1.52e-03  8.77e-05     4.5
   11    -997.5870283549263604    -3.98e-07  1.56e-05  1.06e-03  9.14e-05     4.2
                 **** Energy Check signals convergence ****

               *****************************************************
               *                     SUCCESS                       *
               *           SCF CONVERGED AFTER  11 CYCLES          *
               *****************************************************

Recomputing exchange energy using gridx3       ... done (    9.926 sec)
Old exchange energy                            :    -43.023026532 Eh
New exchange energy                            :    -43.023030327 Eh
Exchange energy change after final integration :     -0.000003795 Eh
Total energy after final integration           :   -997.587032150 Eh
             **** ENERGY FILE WAS UPDATED (honokiol_o2_9.en.tmp) ****

----------------
TOTAL SCF ENERGY
----------------

Total Energy       :       -997.58703214985314 Eh          -27145.72321 eV

Components:
Nuclear Repulsion  :       1637.97092867605238 Eh           44571.45494 eV
Electronic Energy  :      -2635.55795703097874 Eh          -71717.17804 eV
One Electron Energy:      -4628.69229565370097 Eh         -125953.12070 eV
Two Electron Energy:       1993.13433862272223 Eh           54235.94266 eV

Virial components:
Potential Energy   :      -1990.71577134494100 Eh          -54170.13009 eV
Kinetic Energy     :        993.12873919508775 Eh           27024.40689 eV
Virial Ratio       :          2.00448913899962

DFT components:
N(Alpha)           :       79.999974338500 electrons
N(Beta)            :       78.999971354252 electrons
N(Total)           :      158.999945692752 electrons
E(XC)              :      -95.762732017789 Eh       

---------------
SCF CONVERGENCE
---------------

  Last Energy change         ...    3.9829e-07  Tolerance :   1.0000e-06
  Last MAX-Density change    ...    1.0554e-03  Tolerance :   1.0000e-05
  Last RMS-Density change    ...    1.5620e-05  Tolerance :   1.0000e-06
  Last DIIS Error            ...    1.9109e-03  Tolerance :   1.0000e-05
  Last Orbital Gradient      ...    9.1444e-05  Tolerance :   5.0000e-05
  Last Orbital Rotation      ...    6.3232e-04  Tolerance :   5.0000e-05


----------------------
UHF SPIN CONTAMINATION
----------------------

Warning: in a DFT calculation there is little theoretical justification to 
         calculate <S**2> as in Hartree-Fock theory. We will do it anyways
         but you should keep in mind that the values have only limited relevance

Expectation value of <S**2>     :     0.755733
Ideal value S*(S+1) for S=0.5   :     0.750000
Deviation                       :     0.005733

----------------
ORBITAL ENERGIES
----------------
                 SPIN UP ORBITALS
  NO   OCC          E(Eh)            E(eV) 
   0   1.0000     -19.190897      -522.2109 
   1   1.0000     -19.127764      -520.4929 
   2   1.0000     -19.003442      -517.1100 
   3   1.0000     -19.002765      -517.0915 
   4   1.0000     -10.260779      -279.2100 
   5   1.0000     -10.230493      -278.3859 
   6   1.0000     -10.211229      -277.8617 
   7   1.0000     -10.205784      -277.7135 
   8   1.0000     -10.204875      -277.6888 
   9   1.0000     -10.203220      -277.6437 
  10   1.0000     -10.202589      -277.6266 
  11   1.0000     -10.201206      -277.5889 
  12   1.0000     -10.199032      -277.5298 
  13   1.0000     -10.198892      -277.5260 
  14   1.0000     -10.198365      -277.5116 
  15   1.0000     -10.193148      -277.3697 
  16   1.0000     -10.191460      -277.3237 
  17   1.0000     -10.185553      -277.1630 
  18   1.0000     -10.183617      -277.1103 
  19   1.0000     -10.178914      -276.9823 
  20   1.0000     -10.176842      -276.9260 
  21   1.0000     -10.160358      -276.4774 
  22   1.0000      -1.108671       -30.1685 
  23   1.0000      -1.074162       -29.2294 
  24   1.0000      -1.047077       -28.4924 
  25   1.0000      -0.895000       -24.3542 
  26   1.0000      -0.872536       -23.7429 
  27   1.0000      -0.841324       -22.8936 
  28   1.0000      -0.830308       -22.5938 
  29   1.0000      -0.794906       -21.6305 
  30   1.0000      -0.783800       -21.3283 
  31   1.0000      -0.760007       -20.6808 
  32   1.0000      -0.740181       -20.1414 
  33   1.0000      -0.711802       -19.3691 
  34   1.0000      -0.696892       -18.9634 
  35   1.0000      -0.658415       -17.9164 
  36   1.0000      -0.635269       -17.2866 
  37   1.0000      -0.607491       -16.5307 
  38   1.0000      -0.593693       -16.1552 
  39   1.0000      -0.592610       -16.1257 
  40   1.0000      -0.583014       -15.8646 
  41   1.0000      -0.577002       -15.7010 
  42   1.0000      -0.564108       -15.3502 
  43   1.0000      -0.530825       -14.4445 
  44   1.0000      -0.516046       -14.0423 
  45   1.0000      -0.502384       -13.6706 
  46   1.0000      -0.491399       -13.3716 
  47   1.0000      -0.479987       -13.0611 
  48   1.0000      -0.466331       -12.6895 
  49   1.0000      -0.459444       -12.5021 
  50   1.0000      -0.453835       -12.3495 
  51   1.0000      -0.450812       -12.2672 
  52   1.0000      -0.441380       -12.0105 
  53   1.0000      -0.431312       -11.7366 
  54   1.0000      -0.428223       -11.6525 
  55   1.0000      -0.422310       -11.4916 
  56   1.0000      -0.411406       -11.1949 
  57   1.0000      -0.401383       -10.9222 
  58   1.0000      -0.392353       -10.6765 
  59   1.0000      -0.391930       -10.6650 
  60   1.0000      -0.381649       -10.3852 
  61   1.0000      -0.371706       -10.1146 
  62   1.0000      -0.368391       -10.0244 
  63   1.0000      -0.363725        -9.8975 
  64   1.0000      -0.354157        -9.6371 
  65   1.0000      -0.347036        -9.4433 
  66   1.0000      -0.340479        -9.2649 
  67   1.0000      -0.333850        -9.0845 
  68   1.0000      -0.322425        -8.7736 
  69   1.0000      -0.319195        -8.6857 
  70   1.0000      -0.313193        -8.5224 
  71   1.0000      -0.297417        -8.0931 
  72   1.0000      -0.279475        -7.6049 
  73   1.0000      -0.274888        -7.4801 
  74   1.0000      -0.255790        -6.9604 
  75   1.0000      -0.247477        -6.7342 
  76   1.0000      -0.210348        -5.7238 
  77   1.0000      -0.184631        -5.0241 
  78   1.0000      -0.064921        -1.7666 
  79   1.0000      -0.027298        -0.7428 
  80   0.0000       0.136189         3.7059 
  81   0.0000       0.140154         3.8138 
  82   0.0000       0.158804         4.3213 
  83   0.0000       0.171283         4.6608 
  84   0.0000       0.174902         4.7593 
  85   0.0000       0.176861         4.8126 
  86   0.0000       0.200502         5.4559 
  87   0.0000       0.205603         5.5947 
  88   0.0000       0.216506         5.8914 
  89   0.0000       0.222089         6.0433 
  90   0.0000       0.228168         6.2088 

                 SPIN DOWN ORBITALS
  NO   OCC          E(Eh)            E(eV) 
   0   1.0000     -19.190897      -522.2109 
   1   1.0000     -19.127786      -520.4935 
   2   1.0000     -18.991689      -516.7901 
   3   1.0000     -18.990874      -516.7680 
   4   1.0000     -10.260779      -279.2100 
   5   1.0000     -10.230499      -278.3860 
   6   1.0000     -10.211229      -277.8617 
   7   1.0000     -10.205784      -277.7135 
   8   1.0000     -10.204875      -277.6888 
   9   1.0000     -10.203219      -277.6437 
  10   1.0000     -10.202589      -277.6266 
  11   1.0000     -10.201206      -277.5889 
  12   1.0000     -10.199033      -277.5298 
  13   1.0000     -10.198892      -277.5260 
  14   1.0000     -10.198365      -277.5116 
  15   1.0000     -10.193148      -277.3697 
  16   1.0000     -10.191460      -277.3237 
  17   1.0000     -10.185551      -277.1629 
  18   1.0000     -10.183612      -277.1102 
  19   1.0000     -10.178931      -276.9828 
  20   1.0000     -10.176854      -276.9263 
  21   1.0000     -10.160384      -276.4781 
  22   1.0000      -1.108671       -30.1685 
  23   1.0000      -1.048261       -28.5246 
  24   1.0000      -1.043735       -28.4015 
  25   1.0000      -0.895004       -24.3543 
  26   1.0000      -0.872558       -23.7435 
  27   1.0000      -0.841325       -22.8936 
  28   1.0000      -0.830316       -22.5941 
  29   1.0000      -0.794919       -21.6308 
  30   1.0000      -0.783801       -21.3283 
  31   1.0000      -0.760031       -20.6815 
  32   1.0000      -0.740213       -20.1422 
  33   1.0000      -0.711804       -19.3692 
  34   1.0000      -0.696919       -18.9641 
  35   1.0000      -0.658421       -17.9166 
  36   1.0000      -0.635303       -17.2875 
  37   1.0000      -0.607518       -16.5314 
  38   1.0000      -0.592620       -16.1260 
  39   1.0000      -0.583028       -15.8650 
  40   1.0000      -0.577005       -15.7011 
  41   1.0000      -0.564110       -15.3502 
  42   1.0000      -0.547386       -14.8951 
  43   1.0000      -0.530848       -14.4451 
  44   1.0000      -0.516052       -14.0425 
  45   1.0000      -0.502386       -13.6706 
  46   1.0000      -0.491404       -13.3718 
  47   1.0000      -0.479989       -13.0612 
  48   1.0000      -0.466346       -12.6899 
  49   1.0000      -0.459446       -12.5021 
  50   1.0000      -0.453838       -12.3495 
  51   1.0000      -0.450804       -12.2670 
  52   1.0000      -0.441384       -12.0107 
  53   1.0000      -0.431311       -11.7366 
  54   1.0000      -0.428199       -11.6519 
  55   1.0000      -0.422309       -11.4916 
  56   1.0000      -0.411261       -11.1910 
  57   1.0000      -0.401400       -10.9226 
  58   1.0000      -0.392351       -10.6764 
  59   1.0000      -0.391936       -10.6651 
  60   1.0000      -0.381592       -10.3837 
  61   1.0000      -0.371691       -10.1142 
  62   1.0000      -0.368362       -10.0236 
  63   1.0000      -0.363694        -9.8966 
  64   1.0000      -0.354157        -9.6371 
  65   1.0000      -0.346549        -9.4301 
  66   1.0000      -0.336762        -9.1638 
  67   1.0000      -0.319529        -8.6948 
  68   1.0000      -0.319257        -8.6874 
  69   1.0000      -0.293273        -7.9804 
  70   1.0000      -0.285246        -7.7619 
  71   1.0000      -0.279478        -7.6050 
  72   1.0000      -0.274887        -7.4801 
  73   1.0000      -0.255868        -6.9625 
  74   1.0000      -0.250217        -6.8087 
  75   1.0000      -0.247495        -6.7347 
  76   1.0000      -0.210447        -5.7265 
  77   1.0000      -0.184663        -5.0249 
  78   1.0000      -0.008372        -0.2278 
  79   0.0000       0.136057         3.7023 
  80   0.0000       0.140150         3.8137 
  81   0.0000       0.158783         4.3207 
  82   0.0000       0.171261         4.6603 
  83   0.0000       0.174792         4.7563 
  84   0.0000       0.176856         4.8125 
  85   0.0000       0.200421         5.4537 
  86   0.0000       0.205592         5.5944 
  87   0.0000       0.216502         5.8913 
  88   0.0000       0.222095         6.0435 
  89   0.0000       0.228176         6.2090 
*Only the first 10 virtual orbitals were printed.

                    ********************************
                    * MULLIKEN POPULATION ANALYSIS *
                    ********************************

--------------------------------------------
MULLIKEN ATOMIC CHARGES AND SPIN POPULATIONS
--------------------------------------------
   0 O :   -0.440677   -0.000473
   1 O :   -0.432222   -0.000003
   2 C :    0.060802    0.000284
   3 C :    0.181737    0.000504
   4 C :    0.054560    0.000095
   5 C :   -0.260977   -0.000369
   6 C :    0.111534    0.000361
   7 C :   -0.310976   -0.001883
   8 C :    0.194774    0.000680
   9 C :   -0.262132   -0.000334
  10 C :    0.242090   -0.000058
  11 C :   -0.202276    0.000005
  12 C :   -0.198822    0.000017
  13 C :   -0.176633   -0.001060
  14 C :   -0.209157    0.000091
  15 C :   -0.235586    0.001227
  16 C :   -0.141872    0.000006
  17 C :   -0.111440   -0.000052
  18 C :   -0.276834   -0.000000
  19 C :   -0.294464   -0.000005
  20 H :    0.149123    0.000006
  21 H :    0.142837    0.000058
  22 H :    0.129892    0.000017
  23 H :    0.123709   -0.000001
  24 H :    0.117498   -0.000001
  25 H :    0.109546   -0.000016
  26 H :    0.101182    0.000018
  27 H :    0.095800    0.000100
  28 H :    0.084572   -0.000006
  29 H :    0.177646   -0.008341
  30 H :    0.144365   -0.000002
  31 H :    0.120434    0.000002
  32 H :    0.344918   -0.005046
  33 H :    0.316132    0.000000
  34 H :    0.115057    0.000000
  35 H :    0.108816   -0.000000
  36 H :    0.112729   -0.000001
  37 H :    0.108987   -0.000006
  38 O :   -0.444821    0.509860
  39 O :   -0.449850    0.504328
Sum of atomic charges         :   -1.0000000
Sum of atomic spin populations:    1.0000000

-----------------------------------------------------
MULLIKEN REDUCED ORBITAL CHARGES AND SPIN POPULATIONS
-----------------------------------------------------
CHARGE
  0 O s       :     3.780382  s :     3.780382
      pz      :     1.587899  p :     4.627607
      px      :     1.511398
      py      :     1.528311
      dz2     :     0.003147  d :     0.030990
      dxz     :     0.007760
      dyz     :     0.004633
      dx2y2   :     0.007161
      dxy     :     0.008289
      f0      :     0.000248  f :     0.001697
      f+1     :     0.000146
      f-1     :     0.000258
      f+2     :     0.000319
      f-2     :     0.000413
      f+3     :     0.000178
      f-3     :     0.000135

  1 O s       :     3.776986  s :     3.776986
      pz      :     1.363632  p :     4.620448
      px      :     1.479443
      py      :     1.777373
      dz2     :     0.012912  d :     0.033002
      dxz     :     0.004580
      dyz     :     0.001941
      dx2y2   :     0.007090
      dxy     :     0.006480
      f0      :     0.000595  f :     0.001786
      f+1     :     0.000081
      f-1     :     0.000158
      f+2     :     0.000168
      f-2     :     0.000149
      f+3     :     0.000297
      f-3     :     0.000338

  2 C s       :     3.247224  s :     3.247224
      pz      :     0.926971  p :     2.561169
      px      :     0.749086
      py      :     0.885112
      dz2     :     0.023104  d :     0.120961
      dxz     :     0.026838
      dyz     :     0.013808
      dx2y2   :     0.028642
      dxy     :     0.028568
      f0      :     0.000893  f :     0.009844
      f+1     :     0.001444
      f-1     :     0.001402
      f+2     :     0.001538
      f-2     :     0.001623
      f+3     :     0.001817
      f-3     :     0.001126

  3 C s       :     3.184219  s :     3.184219
      pz      :     0.846353  p :     2.492730
      px      :     0.737042
      py      :     0.909335
      dz2     :     0.030928  d :     0.131336
      dxz     :     0.039296
      dyz     :     0.022898
      dx2y2   :     0.017055
      dxy     :     0.021159
      f0      :     0.001621  f :     0.009978
      f+1     :     0.002254
      f-1     :     0.001265
      f+2     :     0.001202
      f-2     :     0.001262
      f+3     :     0.001195
      f-3     :     0.001179

  4 C s       :     3.172214  s :     3.172214
      pz      :     0.812400  p :     2.635933
      px      :     0.842552
      py      :     0.980981
      dz2     :     0.038114  d :     0.127365
      dxz     :     0.028284
      dyz     :     0.020159
      dx2y2   :     0.018142
      dxy     :     0.022665
      f0      :     0.001646  f :     0.009928
      f+1     :     0.002243
      f-1     :     0.001253
      f+2     :     0.001252
      f-2     :     0.001133
      f+3     :     0.001357
      f-3     :     0.001042

  5 C s       :     3.235633  s :     3.235633
[...]
----------------------------
  NO LB      ZA    FRAG     MASS         X           Y           Z
   0 O     8.0000    0    15.999    0.388918    3.957332   -3.313939
   1 O     8.0000    0    15.999   -7.721026   -2.517646    2.487593
   2 C     6.0000    0    12.011    1.969358    0.946202   -0.423635
   3 C     6.0000    0    12.011   -0.596741    0.109098    0.348476
   4 C     6.0000    0    12.011   -4.883400   -1.213216   -0.721172
   5 C     6.0000    0    12.011   -2.510290   -0.344512   -1.406148
   6 C     6.0000    0    12.011    6.524176    0.510684    0.080352
   7 C     6.0000    0    12.011    4.070142   -0.177919    0.689778
   8 C     6.0000    0    12.011    2.344014    2.851783   -2.254637
   9 C     6.0000    0    12.011   -1.159046   -0.327321    2.876905
  10 C     6.0000    0    12.011   -5.372674   -1.646008    1.828786
  11 C     6.0000    0    12.011   -6.926723   -1.601031   -2.676221
  12 C     6.0000    0    12.011    8.763269   -0.761702    1.324966
  13 C     6.0000    0    12.011    6.832250    2.394852   -1.724726
  14 C     6.0000    0    12.011   -3.514198   -1.205365    3.615188
  15 C     6.0000    0    12.011    4.792056    3.551578   -2.876115
  16 C     6.0000    0    12.011   -8.600104    0.682491   -2.915723
  17 C     6.0000    0    12.011    8.865960   -3.551810    0.837533
  18 C     6.0000    0    12.011  -11.071202    0.694551   -2.531121
  19 C     6.0000    0    12.011    8.927022   -5.324411    2.604002
  20 H     1.0000    0     1.008   -2.127717    0.015696   -3.382489
  21 H     1.0000    0     1.008    3.768700   -1.686078    2.049758
  22 H     1.0000    0     1.008    0.259040    0.048418    4.305149
  23 H     1.0000    0     1.008   -6.023505   -1.959177   -4.498676
  24 H     1.0000    0     1.008   -8.070537   -3.252876   -2.208509
  25 H     1.0000    0     1.008   10.496111    0.107038    0.601092
  26 H     1.0000    0     1.008    8.746635   -0.434108    3.368087
  27 H     1.0000    0     1.008    8.725551    2.988427   -2.251374
  28 H     1.0000    0     1.008   -3.913569   -1.531852    5.602257
  29 H     1.0000    0     1.008    5.097948    5.045062   -4.238023
  30 H     1.0000    0     1.008   -7.639512    2.427144   -3.423267
  31 H     1.0000    0     1.008    8.842660   -4.105699   -1.141426
  32 H     1.0000    0     1.008    0.939369    5.150484   -4.833477
  33 H     1.0000    0     1.008   -7.807624   -2.635800    4.291842
  34 H     1.0000    0     1.008  -12.172547    2.409249   -2.723097
  35 H     1.0000    0     1.008  -12.072456   -1.008469   -1.979581
  36 H     1.0000    0     1.008    8.971455   -7.315047    2.128041
  37 H     1.0000    0     1.008    8.911548   -4.841562    4.597051
  38 O     8.0000    0    15.999    2.686519    8.400717   -5.837297
  39 O     8.0000    0    15.999    1.674576    6.575596   -7.161718

--------------------------------
INTERNAL COORDINATES (ANGSTROEM)
--------------------------------
 O      0   0   0     0.000000000000     0.00000000     0.00000000
 O      1   0   0     6.291521038179     0.00000000     0.00000000
 C      1   2   0     2.361728539311    63.77503749     0.00000000
 C      3   1   2     1.485637425884    93.18751180   358.85979930
 C      2   1   3     2.369498439354    19.84553498   266.12797258
 C      5   2   1     1.385544334162   149.14916782    46.84409719
 C      3   1   2     2.435942483815   119.02085781   179.27931325
 C      7   3   1     1.386793078441    28.80759099   179.85568673
 C      1   2   3     1.314103743588    94.95812830     0.86492075
 C      4   3   1     1.389994505984   120.65995207   222.68882229
 C      2   1   3     1.370613184173    22.20235425     3.28378041
 C      5   2   1     1.510500702515    89.86206519   228.30661239
 C      7   3   1     1.513629319446   149.80208023   180.22902338
 C      7   3   1     1.390367658884    88.45023667   359.64754240
 C     11   2   1     1.383910512906   121.82134207   139.73047682
 C     14   7   3     1.382571186111   121.91735948   359.97369655
 C     12   5   2     1.503462834159   111.72532742    85.19525950
 C     13   7   3     1.499807515357   113.04422423    60.46564759
 C     17  12   5     1.323407599547   124.95143314   239.25288039
 C     18  13   7     1.324662735703   125.21310978   236.45605134
 H      6   5   2     1.082169191878   118.73936005   180.38317384
 H      8   7   3     1.086419648139   118.98364257   178.30915670
 H     10   4   3     1.083460808178   119.51912033     3.44082255
 H     12   5   2     1.092903209839   108.35385679   205.06578854
 H     12   5   2     1.091652115522   110.51249163   322.82485432
 H     13   7   3     1.094954569327   108.45613411   181.24882018
 H     13   7   3     1.095018104610   110.66537766   297.84896831
 H     14   7   3     1.086332206856   119.45495687   179.80757787
 H     15  11   2     1.086365616772   119.74391545   359.26777278
 H     16  14   7     1.081757392676   120.01366275   178.42032221
 H     17  12   5     1.087603813397   115.32825574    58.46870714
 H     18  13   7     1.087535008994   115.50013984    54.99047498
 H      1   2   3     1.063054269487   151.57880581   161.50799549
 H      2   1   3     0.957909583205   123.67930203    55.05995333
 H     19  17  12     1.083199494488   121.41623488   179.61406196
 H     19  17  12     1.085391799506   121.31165664     0.64518920
 H     20  18  13     1.083346608556   121.66911384   179.04396453
 H     20  18  13     1.085216488766   121.25857331   359.79949480
 O     33   1   2     2.023658560481   145.94910965   130.74044627
 O     39  33   1     1.307955145818    47.62429736   176.77002448

---------------------------
INTERNAL COORDINATES (A.U.)
---------------------------
 O      0   0   0     0.000000000000     0.00000000     0.00000000
 O      1   0   0    11.889251727962     0.00000000     0.00000000
 C      1   2   0     4.463020141964    63.77503749     0.00000000
 C      3   1   2     2.807447869224    93.18751180   358.85979930
 C      2   1   3     4.477703125132    19.84553498   266.12797258
 C      5   2   1     2.618299337972   149.14916782    46.84409719
 C      3   1   2     4.603264172395   119.02085781   179.27931325
 C      7   3   1     2.620659122672    28.80759099   179.85568673
 C      1   2   3     2.483296186942    94.95812830     0.86492075
 C      4   3   1     2.626708943966   120.65995207   222.68882229
 C      2   1   3     2.590083553628    22.20235425     3.28378041
 C      5   2   1     2.854432652849    89.86206519   228.30661239
 C      7   3   1     2.860344882027   149.80208023   180.22902338
 C      7   3   1     2.627414100752    88.45023667   359.64754240
 C     11   2   1     2.615211863247   121.82134207   139.73047682
 C     14   7   3     2.612680902401   121.91735948   359.97369655
 C     12   5   2     2.841133009090   111.72532742    85.19525950
 C     13   7   3     2.834225457621   113.04422423    60.46564759
 C     17  12   5     2.500877926695   124.95143314   239.25288039
 C     18  13   7     2.503249790289   125.21310978   236.45605134
 H      6   5   2     2.045003403217   118.73936005   180.38317384
 H      8   7   3     2.053035601494   118.98364257   178.30915670
 H     10   4   3     2.047444204293   119.51912033     3.44082255
 H     12   5   2     2.065287757480   108.35385679   205.06578854
 H     12   5   2     2.062923531853   110.51249163   322.82485432
 H     13   7   3     2.069164265114   108.45613411   181.24882018
 H     13   7   3     2.069284329398   110.66537766   297.84896831
 H     14   7   3     2.052870361417   119.45495687   179.80757787
 H     15  11   2     2.052933497008   119.74391545   359.26777278
 H     16  14   7     2.044225215503   120.01366275   178.42032221
 H     17  12   5     2.055273349528   115.32825574    58.46870714
 H     18  13   7     2.055143328051   115.50013984    54.99047498
 H      1   2   3     2.008881434827   151.57880581   161.50799549
 H      2   1   3     1.810186773316   123.67930203    55.05995333
 H     19  17  12     2.046950392984   121.41623488   179.61406196
 H     19  17  12     2.051093249071   121.31165664     0.64518920
 H     20  18  13     2.047228398283   121.66911384   179.04396453
 H     20  18  13     2.050761959783   121.25857331   359.79949480
 O     33   1   2     3.824160467875   145.94910965   130.74044627
 O     39  33   1     2.471677021049    47.62429736   176.77002448



           ************************************************************
           *        Program running with 28 parallel MPI-processes    *
           *              working on a common directory               *
           ************************************************************
------------------------------------------------------------------------------
                   ___                                                        
                  /   \      - P O W E R E D   B Y -                         
                 /     \                                                     
                 |  |  |   _    _      __       _____    __    __             
                 |  |  |  | |  | |    /  \     |  _  \  |  |  /  |          
                  \  \/   | |  | |   /    \    | | | |  |  | /  /          
                 / \  \   | |__| |  /  /\  \   | |_| |  |  |/  /          
                |  |  |   |  __  | /  /__\  \  |    /   |      \           
                |  |  |   | |  | | |   __   |  |    \   |  |\   \          
                \     /   | |  | | |  |  |  |  | |\  \  |  | \   \       
                 \___/    |_|  |_| |__|  |__|  |_| \__\ |__|  \__/        
                                                                              
                      - O R C A' S   B I G   F R I E N D -                    
                                      &                                       
                       - I N T E G R A L  F E E D E R -                       
                                                                              
 v1 FN, 2020, v2 2021, v3 2022-2024                                           
------------------------------------------------------------------------------


----------------------
SHARK INTEGRAL PACKAGE
----------------------

Number of atoms                             ...     40
Number of basis functions                   ...    790
Number of shells                            ...    314
Maximum angular momentum                    ...      3
Integral batch strategy                     ... SHARK/LIBINT Hybrid
RI-J (if used) integral strategy            ... SPLIT-RIJ (Revised 2003 algorithm where possible)
Printlevel                                  ...      1
Contraction scheme used                     ... SEGMENTED contraction
Prescreening option                         ... SCHWARTZ
   Thresh                                   ... 1.000e-10
   Tcut                                     ... 1.000e-11
   Tpresel                                  ... 1.000e-11 
Coulomb Range Separation                    ... NOT USED
Exchange Range Separation                   ... Long Range
   Mu parameter                             ... 2.500e-01
   Scaling (regular/separated)              ... 1.957e-01 8.043e-01
Multipole approximations                    ... NOT USED
Finite Nucleus Model                        ... NOT USED
CABS basis                                  ... NOT available
Auxiliary Coulomb fitting basis             ... AVAILABLE
   # of basis functions in Aux-J            ...   1276
   # of shells in Aux-J                     ...    420
   Maximum angular momentum in Aux-J        ...      4
Auxiliary J/K fitting basis                 ... NOT available
Auxiliary Correlation fitting basis         ... NOT available
Auxiliary 'external' fitting basis          ... NOT available

Checking pre-screening integrals            ... done (  0.0 sec) Dimension = 314
Check shell pair data                       ... done (  0.0 sec)
Shell pair information
Shell pair cut-off parameter TPreSel        ...   1.0e-11
Total number of shell pairs                 ...     49455
Shell pairs after pre-screening             ...     31547
Total number of primitive shell pairs       ...    150964
Primitive shell pairs kept                  ...     63776
          la=0 lb=0:   8328 shell pairs
          la=1 lb=0:   9219 shell pairs
          la=1 lb=1:   2577 shell pairs
          la=2 lb=0:   4424 shell pairs
          la=2 lb=1:   2469 shell pairs
          la=2 lb=2:    611 shell pairs
          la=3 lb=0:   2051 shell pairs
          la=3 lb=1:   1178 shell pairs
          la=3 lb=2:    553 shell pairs
          la=3 lb=3:    137 shell pairs

Calculating one electron integrals          ... done (  0.0 sec)
Calculating RI/J V-Matrix + Cholesky decomp.... done (  0.1 sec)
Calculating Nuclear repulsion               ... done (  0.0 sec) ENN=   1660.014305162077 Eh

Diagonalization of the overlap matrix:
Smallest eigenvalue                        ... 6.255e-06
Time for diagonalization                   ...    0.090 sec
Threshold for overlap eigenvalues          ... 1.000e-07
Number of eigenvalues below threshold      ... 0
Time for construction of square roots      ...    0.044 sec
Total time needed                          ...    0.145 sec

-------------------
DFT GRID GENERATION
-------------------

General Integration Accuracy     IntAcc      ... 4.388
Radial Grid Type                 RadialGrid  ... OptM3 with GC (2021)
Angular Grid (max. ang.)         AngularGrid ... 4 (Lebedev-302)
Angular grid pruning method      GridPruning ... 4 (adaptive)
Weight generation scheme         WeightScheme... mBecke (2022)
Basis function cutoff            BFCut       ... 1.0000e-10
Integration weight cutoff        WCut        ... 1.0000e-14
Partially contracted basis set               ... off
Rotationally invariant grid construction     ... off
Angular grids for H and He will be reduced by one unit

Total number of grid points                  ...   189230
Total number of batches                      ...     2981
Average number of points per batch           ...       63
Average number of grid points per atom       ...     4731

--------------------
COSX GRID GENERATION
--------------------

GRIDX 1
-------
General Integration Accuracy     IntAcc      ... 3.816
Radial Grid Type                 RadialGrid  ... OptM3 with GC (2021)
Angular Grid (max. ang.)         AngularGrid ... 1 (Lebedev-50)
Angular grid pruning method      GridPruning ... 4 (adaptive)
Weight generation scheme         WeightScheme... mBecke (2022)
Basis function cutoff            BFCut       ... 1.0000e-10
Integration weight cutoff        WCut        ... 1.0000e-14
Partially contracted basis set               ... on
Rotationally invariant grid construction     ... off
Angular grids for H and He will be reduced by one unit

Total number of grid points                  ...    24066
Total number of batches                      ...      212
Average number of points per batch           ...      113
Average number of grid points per atom       ...      602
UseSFitting                                  ... on

GRIDX 2
-------
General Integration Accuracy     IntAcc      ... 4.020
Radial Grid Type                 RadialGrid  ... OptM3 with GC (2021)
Angular Grid (max. ang.)         AngularGrid ... 2 (Lebedev-110)
Angular grid pruning method      GridPruning ... 4 (adaptive)
Weight generation scheme         WeightScheme... mBecke (2022)
Basis function cutoff            BFCut       ... 1.0000e-10
Integration weight cutoff        WCut        ... 1.0000e-14
Partially contracted basis set               ... on
Rotationally invariant grid construction     ... off
Angular grids for H and He will be reduced by one unit

Total number of grid points                  ...    52179
Total number of batches                      ...      428
Average number of points per batch           ...      121
Average number of grid points per atom       ...     1304
UseSFitting                                  ... on

GRIDX 3
-------
General Integration Accuracy     IntAcc      ... 4.338
Radial Grid Type                 RadialGrid  ... OptM3 with GC (2021)
Angular Grid (max. ang.)         AngularGrid ... 3 (Lebedev-194)
Angular grid pruning method      GridPruning ... 4 (adaptive)
Weight generation scheme         WeightScheme... mBecke (2022)
Basis function cutoff            BFCut       ... 1.0000e-10
Integration weight cutoff        WCut        ... 1.0000e-14
Partially contracted basis set               ... on
Rotationally invariant grid construction     ... off
Angular grids for H and He will be reduced by one unit

Total number of grid points                  ...   114119
Total number of batches                      ...      912
Average number of points per batch           ...      125
Average number of grid points per atom       ...     2853
UseSFitting                                  ... on
Initializing property integral containers    ... done (  0.0 sec)

SHARK setup successfully completed in   2.8 seconds

Maximum memory used throughout the entire STARTUP-calculation: 84.5 MB


           ************************************************************
           *        Program running with 28 parallel MPI-processes    *
           *              working on a common directory               *
           ************************************************************
             **** ENERGY FILE WAS UPDATED (honokiol_o2_9.en.tmp) ****
Finished Guess after   1.8 sec
Maximum memory used throughout the entire GUESS-calculation: 74.5 MB


           ************************************************************
           *        Program running with 28 parallel MPI-processes    *
           *              working on a common directory               *
           ************************************************************
----------------------------------------D-I-I-S--------------------------------------------
Iteration    Energy (Eh)           Delta-E    RMSDP     MaxDP     DIISErr   Damp  Time(sec)
-------------------------------------------------------------------------------------------
               ***  Starting incremental Fock matrix formation  ***
    1    -997.6113926442167212     0.00e+00  1.29e-04  1.30e-02  1.36e-02  0.700   6.8
    2    -997.6148947017854880    -3.50e-03  1.21e-04  1.24e-02  1.10e-02  0.700   4.0
                               ***Turning on AO-DIIS***
    3    -997.6177636303041254    -2.87e-03  1.08e-04  1.12e-02  8.66e-03  0.700   3.6
    4    -997.6200154361531531    -2.25e-03  2.89e-04  2.98e-02  6.46e-03  0.000   3.5
                              *** Initializing SOSCF ***
---------------------------------------S-O-S-C-F--------------------------------------
Iteration    Energy (Eh)           Delta-E    RMSDP     MaxDP     MaxGrad    Time(sec)
--------------------------------------------------------------------------------------
    5    -997.6265148130610214    -6.50e-03  3.21e-05  2.61e-03  1.22e-03     4.2
               *** Restarting incremental Fock matrix formation ***
    6    -997.6266049175937951    -9.01e-05  2.67e-05  1.43e-03  7.50e-04     6.6
    7    -997.6266321926132150    -2.73e-05  2.80e-05  2.14e-03  4.07e-04     4.6
    8    -997.6266410085763710    -8.82e-06  1.10e-05  6.01e-04  4.37e-04     4.6
    9    -997.6266463153083350    -5.31e-06  1.00e-05  9.59e-04  3.31e-04     4.3
   10    -997.6266490382722623    -2.72e-06  1.07e-05  9.76e-04  3.23e-04     4.2
   11    -997.6266537149922442    -4.68e-06  3.02e-05  2.79e-03  2.85e-04     4.0
   12    -997.6266632924503028    -9.58e-06  1.42e-05  1.07e-03  2.62e-04     4.3
   13    -997.6266669145561536    -3.62e-06  1.69e-05  9.79e-04  2.25e-04     4.2

ORCA finished by error termination in LEANSCF
Calling Command: mpirun -np 28  /home/ys/orca_6_0_1_linux_x86-64_shared_openmpi416/orca_leanscf_mpi honokiol_o2_9.gbw honokiol_o2_9 
[file orca_tools/qcmsg.cpp, line 394]: 
  .... aborting the run

