LAMMPS data file. CGCMM style. atom_style full generated by VMD/TopoTools v1.7 on Mon Feb 24 15:11:51 KST 2025
 2 atoms
 1 atom types
 -2.500000 2.500000  xlo xhi
 -2.500000 2.500000  ylo yhi
 -2.500000 2.500000  zlo zhi

# Pair Coeffs
#
# 1  O

 Masses

 1 15.999400 # O

 Atoms # full

1  4  -0.500016  -0.004591  0.000000  0.000000  #  O
2  4  -0.499984  1.334591  0.000000  0.000000  #  O

