LAMMPS (2 Aug 2023 - Update 4)
OMP_NUM_THREADS environment is not set. Defaulting to 1 thread. (src/comm.cpp:98)
  using 1 OpenMP thread(s) per MPI task
# LAMMPS Input Script for Honokiol + O2- Adsorption Study
units real
atom_style charge  # ReaxFF requires charge
boundary p p p  # Periodic boundary conditions

# Read Honokiol first to define simulation box
read_data chelpg_updated_honokiol_2_remove_bond.data
Reading data file ...
  orthogonal box = (-15 -15 -15) to (15 15 15)
  2 by 2 by 7 MPI processor grid
WARNING: Atom style in data file full differs from currently defined atom style charge (src/read_data.cpp:621)
  reading atoms ...
  38 atoms
  read_data CPU = 0.002 seconds

# Now append O2- molecule
read_data chelpg_updated_O2_remove_bond.data add append
Reading data file ...
  orthogonal box = (-15 -15 -15) to (15 15 15)
  2 by 2 by 7 MPI processor grid
WARNING: Atom style in data file full differs from currently defined atom style charge (src/read_data.cpp:621)
  reading atoms ...
  2 atoms
  read_data CPU = 0.001 seconds

# Define groups
group honokiol type 1 2 3  # Honokiol (C, H, O)
38 atoms in group honokiol
group O2molecule type 4  # O2- (assumed type 4)
2 atoms in group O2molecule

# Fix Honokiol (prevent movement)
fix freeze honokiol setforce 0.0 0.0 0.0

# Randomly move O2- as a whole unit
variable dx equal random(-5,5,12345)
variable dy equal random(-5,5,67890)
variable dz equal random(-5,5,54321)
displace_atoms O2molecule move ${dx} ${dy} ${dz} units box
displace_atoms O2molecule move 3.69953095912933 ${dy} ${dz} units box
displace_atoms O2molecule move 3.69953095912933 -4.89574074745178 ${dz} units box
displace_atoms O2molecule move 3.69953095912933 -4.89574074745178 -2.06432163715363 units box
Displacing atoms ...

# Define ReaxFF pair style and parameters
pair_style reax/c NULL
pair_coeff * * ffield.reax.rdx C H O O  # O2- included
Reading potential file ffield.reax.rdx with DATE: 2010-02-19

# Charge equilibration (QEq) required for ReaxFF
fix 1 all qeq/reaxff 1 0.0 10.0 1.0e-6 reaxff

# Minimize energy before simulation
minimize 1.0e-6 1.0e-8 5000 10000

CITE-CITE-CITE-CITE-CITE-CITE-CITE-CITE-CITE-CITE-CITE-CITE-CITE

Your simulation uses code contributions which should be cited:

- pair reaxff command: doi:10.1016/j.parco.2011.08.005

@Article{Aktulga12,
 author = {H. M. Aktulga and J. C. Fogarty and S. A. Pandit and A. Y. Grama},
 title = {Parallel Reactive Molecular Dynamics: {N}umerical Methods and Algorithmic Techniques},
 journal = {Parallel Computing},
 year =    2012,
 volume =  38,
 number =  {4--5},
 pages =   {245--259}
}

- fix qeq/reaxff command: doi:10.1016/j.parco.2011.08.005

@Article{Aktulga12,
 author = {H. M. Aktulga and J. C. Fogarty and S. A. Pandit and A. Y. Grama},
 title = {Parallel Reactive Molecular Dynamics: {N}umerical Methods and Algorithmic Techniques},
 journal = {Parallel Computing},
 year =    2012,
 volume =  38,
 pages =   {245--259}
}

CITE-CITE-CITE-CITE-CITE-CITE-CITE-CITE-CITE-CITE-CITE-CITE-CITE

WARNING: Fix qeq/reaxff group is not charge neutral, net charge = -0.999998 (src/REAXFF/fix_qeq_reaxff.cpp:410)
Neighbor list info ...
  update: every = 1 steps, delay = 0 steps, check = yes
  max neighbors/atom: 2000, page size: 100000
  master list distance cutoff = 12
  ghost atom cutoff = 12
  binsize = 6, bins = 5 5 5
  2 neighbor lists, perpetual/occasional/extra = 2 0 0
  (1) pair reax/c, perpetual
      attributes: half, newton off, ghost
      pair build: half/bin/newtoff/ghost
      stencil: full/ghost/bin/3d
      bin: standard
  (2) fix qeq/reaxff, perpetual, copy from (1)
      attributes: half, newton off
      pair build: copy
      stencil: none
      bin: none
Per MPI rank memory allocation (min/avg/max) = 7.706 | 7.861 | 8.067 Mbytes
   Step          Temp          E_pair         E_mol          TotEng         Press     
         0   0             -4831.2953      0             -4831.2953      1543.1584    
         9   0             -4853.4056      0             -4853.4056      1884.337     
Loop time of 0.0189336 on 28 procs for 9 steps with 40 atoms

98.0% CPU use with 28 MPI tasks x 1 OpenMP threads

Minimization stats:
  Stopping criterion = energy tolerance
  Energy initial, next-to-last, final = 
     -4831.29530884171  -4853.40324215629  -4853.40557380291
  Force two-norm initial, final = 423.56692 1.3113471
  Force max component initial, final = 299.55564 0.67596249
  Final line search alpha, max atom move = 0.0058224399 0.003935751
  Iterations, force evaluations = 9 18

MPI task timing breakdown:
Section |  min time  |  avg time  |  max time  |%varavg| %total
---------------------------------------------------------------
Pair    | 0.001223   | 0.0023333  | 0.0055037  |   2.0 | 12.32
Neigh   | 0          | 0          | 0          |   0.0 |  0.00
Comm    | 0.00030858 | 0.0015132  | 0.0036161  |   3.1 |  7.99
Output  | 0          | 0          | 0          |   0.0 |  0.00
Modify  | 0.012653   | 0.012669   | 0.012696   |   0.0 | 66.91
Other   |            | 0.002418   |            |       | 12.77

Nlocal:        1.42857 ave          10 max           0 min
Histogram: 20 1 3 0 0 1 0 0 1 2
Nghost:        48.3571 ave          59 max          35 min
Histogram: 2 0 6 2 1 1 5 7 0 4
Neighs:        50.4643 ave         343 max           0 min
Histogram: 20 1 3 0 0 1 0 0 1 2

Total # of neighbors = 1413
Ave neighs/atom = 35.325
Neighbor list builds = 0
Dangerous builds = 0

# Save minimized structure
write_data minimized_structure.data  # Save the minimized structure for future analysis
System init for write_data ...

# Define NVT ensemble for simulation (only O2- moves)
fix nvt O2molecule nvt temp 300.0 300.0 100.0

# Define MSD computation
compute msdO O2molecule msd
fix msdout O2molecule ave/time 100 1 100 c_msdO[1] file msd_O2.dat
fix msdoutX O2molecule ave/time 100 1 100 c_msdO[2] file msd_O2_X.dat
fix msdoutY O2molecule ave/time 100 1 100 c_msdO[3] file msd_O2_Y.dat
fix msdoutZ O2molecule ave/time 100 1 100 c_msdO[4] file msd_O2_Z.dat

# Bond Order Analysis (Check if O2 is binding)
fix bonds all reax/c/bonds 1000 bonds.reax

# Output settings: Save trajectory and bond information
thermo 1000
thermo_style custom step temp pe ke etotal press
dump 1 all atom 1000 dump.lammpstrj  # Save trajectory

# Run molecular dynamics simulation (longer to find adsorption site)
timestep 0.25
run 2000000  # 200 ps 실행
Per MPI rank memory allocation (min/avg/max) = 11.89 | 12.05 | 12.25 Mbytes
   Step          Temp          PotEng         KinEng         TotEng         Press     
         9   0             -4853.4056      0             -4853.4056      1884.3368    
      1000   6.9383531     -4852.9918      0.8065946     -4852.1852      1898.2881    
      2000   1.0365182     -4853.3931      0.1204969     -4853.2726      1884.2907    
      3000   7.7232572     -4851.8638      0.89784094    -4850.966       1906.6859    
      4000   1.1595993     -4853.1174      0.13480526    -4852.9826      1883.6906    
      5000   11.813915     -4853.6933      1.3733865     -4852.3199      1891.241     
      6000   3.6497316     -4853.9423      0.42428711    -4853.518       1883.4218    
      7000   5.624015      -4854.3418      0.6538007     -4853.688       1887.307     
      8000   9.8811614     -4854.2282      1.1487007     -4853.0795      1882.6733    
      9000   7.7125987     -4853.9722      0.89660188    -4853.0756      1893.3161    
     10000   4.6577979     -4855.4774      0.54147642    -4854.936       1886.9311    
     11000   7.1714035     -4856.904       0.83368707    -4856.0703      1883.6163    
     12000   6.6480007     -4858.0284      0.77284066    -4857.2555      1886.9837    
     13000   7.3853589     -4858.659       0.85855973    -4857.8004      1883.652     
     14000   13.010863     -4858.1955      1.5125335     -4856.683       1893.6531    
     15000   1.6030025     -4856.8783      0.1863516     -4856.6919      1885.523     
     16000   15.557129     -4857.5712      1.808541      -4855.7626      1893.4428    
     17000   3.7024153     -4858.5018      0.43041167    -4858.0713      1884.3004    
     18000   18.27742      -4857.6807      2.1247792     -4855.5559      1899.0385    
     19000   1.1655177     -4857.391       0.13549329    -4857.2555      1881.7087    
     20000   6.6722208     -4858.0608      0.77565629    -4857.2852      1887.104     
     21000   4.7687762     -4858.5521      0.55437783    -4857.9977      1889.6452    
     22000   6.189526      -4858.4736      0.71954225    -4857.754       1886.7637    
     23000   8.8326011     -4857.736       1.0268039     -4856.7092      1886.0192    
     24000   6.7484897     -4857.1743      0.78452268    -4856.3898      1893.7111    
     25000   3.9220683     -4857.8143      0.45594668    -4857.3584      1887.0146    
     26000   25.128054     -4858.178       2.9211763     -4855.2568      1883.3036    
     27000   6.6240391     -4858.33        0.7700551     -4857.5599      1884.5279    
     28000   31.070679     -4857.7819      3.6120159     -4854.1699      1886.2996    
     29000   9.7785943     -4857.7308      1.1367772     -4856.594       1883.9632    
     30000   6.7084464     -4857.6759      0.77986758    -4856.896       1895.3932    
     31000   1.9515555     -4858.2899      0.22687143    -4858.0631      1886.1848    
     32000   14.61967      -4857.5645      1.6995599     -4855.8649      1897.3168    
     33000   1.9801302     -4857.6486      0.23019329    -4857.4185      1884.4025    
     34000   4.6218424     -4857.1169      0.53729654    -4856.5796      1898.644     
     35000   2.486983      -4857.6829      0.28911574    -4857.3937      1890.3166    
     36000   14.581231     -4857.6967      1.6950913     -4856.0016      1880.36      
     37000   8.5635995     -4858.4423      0.99553207    -4857.4468      1888.9987    
     38000   2.3249        -4858.6651      0.27027333    -4858.3948      1884.8497    
     39000   14.678008     -4857.8189      1.7063418     -4856.1125      1896.2766    
     40000   3.2708772     -4857.6573      0.38024468    -4857.2771      1884.4387    
     41000   2.3489905     -4856.8316      0.27307388    -4856.5585      1906.5963    
     42000   6.2703776     -4857.4623      0.72894138    -4856.7334      1880.3227    
     43000   7.9702412     -4857.7101      0.92655323    -4856.7835      1892.0489    
     44000   8.3892729     -4858.5704      0.97526633    -4857.5951      1883.0156    
     45000   16.326638     -4858.3435      1.8979977     -4856.4455      1885.3746    
     46000   7.0825879     -4858.0724      0.82336211    -4857.249       1891.5621    
     47000   10.139022     -4858.3144      1.1786775     -4857.1357      1881.6944    
     48000   10.344446     -4857.7816      1.2025583     -4856.579       1892.6052    
     49000   2.852522      -4858.1564      0.33161022    -4857.8248      1885.2177    
     50000   6.1424813     -4857.8758      0.71407323    -4857.1617      1888.8373    
     51000   7.009552      -4857.8848      0.81487158    -4857.0699      1885.6849    
     52000   1.9334009     -4858.3472      0.22476094    -4858.1225      1887.0614    
     53000   7.0261179     -4857.8253      0.81679739    -4857.0085      1902.5732    
     54000   3.2744112     -4857.8691      0.38065551    -4857.4884      1884.3631    
     55000   10.372175     -4858.2129      1.2057818     -4857.0071      1888.2313    
     56000   6.9127852     -4858.142       0.80362228    -4857.3384      1886.9483    
     57000   1.9711702     -4857.7013      0.22915168    -4857.4722      1885.9172    
     58000   13.903339     -4858.3559      1.6162853     -4856.7396      1889.1354    
     59000   2.5045534     -4858.6921      0.29115832    -4858.4009      1883.5701    
     60000   15.85278      -4856.8331      1.8429109     -4854.9902      1917.2887    
     61000   0.75947918    -4857.3617      0.088290664   -4857.2734      1882.1817    
     62000   11.07962      -4858.1502      1.2880235     -4856.8622      1902.2449    
     63000   4.0093404     -4858.2786      0.4660922     -4857.8125      1885.4855    
     64000   6.0534447     -4856.4454      0.70372258    -4855.7417      1880.3042    
     65000   6.304425      -4856.451       0.73289944    -4855.7181      1903.5165    
     66000   1.6912485     -4856.3115      0.19661033    -4856.1148      1881.1556    
     67000   13.109796     -4855.9423      1.5240347     -4854.4183      1900.4798    
     68000   4.1189471     -4855.7593      0.47883415    -4855.2805      1880.4738    
     69000   27.202817     -4856.4016      3.1623708     -4853.2393      1888.7601    
     70000   7.7041678     -4856.9594      0.89562177    -4856.0638      1889.8044    
     71000   6.4991897     -4857.1231      0.75554115    -4856.3676      1884.1381    
     72000   6.6116568     -4858.6847      0.76861563    -4857.9161      1885.3274    
     73000   7.7061216     -4858.6755      0.8958489     -4857.7797      1887.6396    
     74000   4.650395      -4856.9725      0.54061582    -4856.4319      1878.8109    
     75000   2.2614498     -4857.4254      0.26289714    -4857.1625      1896.5818    
     76000   3.6696939     -4858.2076      0.42660776    -4857.781       1889.2568    
     77000   6.0089188     -4856.8616      0.69854638    -4856.1631      1881.3076    
     78000   9.3920682     -4857.2721      1.0918429     -4856.1803      1894.2027    
     79000   1.828384      -4858.1773      0.21255255    -4857.9648      1888.6684    
     80000   20.009963     -4858.04        2.3261901     -4855.7138      1887.3252    
     81000   1.648907      -4857.6003      0.19168806    -4857.4086      1884.8812    
     82000   12.237009     -4857.7887      1.4225718     -4856.3662      1895.7616    
     83000   2.5210951     -4858.5086      0.29308132    -4858.2155      1885.1302    
     84000   10.400402     -4858.3202      1.2090633     -4857.1111      1888.7321    
     85000   8.6819659     -4858.1005      1.0092924     -4857.0912      1884.3171    
     86000   3.7373759     -4857.5852      0.4344759     -4857.1507      1893.3394    
     87000   4.135648      -4857.358       0.48077567    -4856.8772      1879.6831    
     88000   7.1313763     -4857.5134      0.82903385    -4856.6843      1888.0862    
     89000   3.1625961     -4858.2773      0.36765683    -4857.9097      1886.9962    
     90000   1.5527688     -4858.4612      0.18051184    -4858.2806      1889.6938    
     91000   4.2488796     -4857.7601      0.49393902    -4857.2662      1883.2974    
     92000   27.068835     -4857.4492      3.1467951     -4854.3024      1897.4396    
     93000   8.1329166     -4857.2184      0.9454645     -4856.2729      1882.9497    
     94000   19.245318     -4856.4052      2.2372989     -4854.1679      1882.2101    
     95000   13.028306     -4857.4567      1.5145613     -4855.9421      1882.6431    
     96000   3.2618156     -4857.8969      0.37919125    -4857.5177      1889.0043    
     97000   9.7667489     -4857.8324      1.1354001     -4856.697       1890.5879    
     98000   2.5641884     -4858.192       0.29809099    -4857.8939      1894.6996    
     99000   20.604874     -4857.6019      2.3953494     -4855.2065      1882.3622    
    100000   5.006429      -4858.4893      0.58200534    -4857.9073      1883.0918    
    101000   18.327995     -4858.3327      2.1306586     -4856.2021      1894.139     
    102000   1.7244115     -4857.1647      0.20046559    -4856.9642      1878.3817    
    103000   5.0240006     -4858.3038      0.58404807    -4857.7198      1890.6984    
    104000   15.957204     -4858.4143      1.8550503     -4856.5592      1889.1448    
    105000   7.245863      -4858.2535      0.84234311    -4857.4112      1892.3517    
    106000   12.414383     -4857.9881      1.4431918     -4856.5449      1883.9478    
    107000   12.694451     -4858.0472      1.4757502     -4856.5714      1884.9719    
    108000   0.7667521     -4858.6402      0.089136152   -4858.551       1888.9043    
    109000   4.025493      -4857.5167      0.46796997    -4857.0488      1887.9571    
    110000   6.3783525     -4857.4645      0.74149363    -4856.723       1890.7568    
    111000   2.0635445     -4857.5563      0.23989033    -4857.3164      1883.6176    
    112000   10.865172     -4856.1544      1.2630936     -4854.8913      1913.5687    
    113000   6.6884706     -4858.4973      0.77754535    -4857.7198      1884.2994    
    114000   19.023607     -4858.3825      2.2115246     -4856.171       1886.5198    
    115000   4.3746624     -4857.946       0.50856147    -4857.4374      1889.1209    
    116000   10.970626     -4857.6052      1.2753528     -4856.3298      1879.8063    
    117000   15.948253     -4857.641       1.8540098     -4855.787       1892.1081    
    118000   4.163123      -4858.6873      0.48396968    -4858.2033      1884.4645    
    119000   17.55261      -4857.7617      2.0405189     -4855.7212      1897.4204    
    120000   1.5057552     -4856.9741      0.17504644    -4856.799       1878.6214    
    121000   10.076627     -4857.5688      1.171424      -4856.3974      1900.7518    
    122000   4.189781      -4857.8256      0.48706871    -4857.3385      1883.5677    
    123000   8.6281965     -4857.3279      1.0030416     -4856.3249      1882.0981    
    124000   6.0439075     -4857.8125      0.70261387    -4857.1099      1891.9756    
    125000   7.2397842     -4857.3436      0.84163644    -4856.502       1886.5867    
    126000   12.213744     -4856.7205      1.4198671     -4855.3006      1885.453     
    127000   5.968642      -4857.4084      0.69386413    -4856.7145      1890.0305    
    128000   4.8294266     -4858.0094      0.56142853    -4857.448       1883.9228    
    129000   9.2052617     -4858.595       1.0701263     -4857.5249      1890.289     
    130000   6.4326462     -4858.4209      0.74780537    -4857.6731      1884.748     
    131000   10.353259     -4857.0098      1.2035829     -4855.8062      1898.7455    
    132000   1.7147162     -4857.0372      0.19933848    -4856.8378      1883.8446    
    133000   13.646926     -4857.9604      1.5864769     -4856.3739      1888.8588    
    134000   3.0922325     -4858.3187      0.35947695    -4857.9592      1895.2828    
    135000   4.736843      -4857.2101      0.55066554    -4856.6594      1890.0931    
    136000   7.6936632     -4857.5211      0.89440059    -4856.6267      1886.6108    
    137000   3.1557999     -4857.8645      0.36686676    -4857.4977      1897.5709    
    138000   4.3807628     -4858.1938      0.50927065    -4857.6845      1886.1981    
    139000   15.835898     -4857.2574      1.8409483     -4855.4164      1884.6523    
    140000   14.281185     -4856.6413      1.6602105     -4854.9811      1881.9745    
    141000   9.6650068     -4857.7346      1.1235724     -4856.611       1887.5951    
    142000   17.060507     -4857.5174      1.9833111     -4855.5341      1884.6583    
    143000   3.1001144     -4857.2956      0.36039324    -4856.9352      1884.4646    
    144000   4.3565236     -4857.5358      0.50645281    -4857.0294      1892.9431    
    145000   4.5680501     -4858.1955      0.53104309    -4857.6644      1882.5459    
    146000   5.2135284     -4857.4435      0.60608098    -4856.8374      1906.2951    
    147000   5.2053734     -4857.4974      0.60513294    -4856.8923      1878.955     
    148000   1.3990924     -4857.7805      0.16264672    -4857.6178      1900.0824    
    149000   7.7109757     -4857.62        0.8964132     -4856.7236      1878.4304    
    150000   2.9814355     -4857.9027      0.34659662    -4857.5561      1891.4263    
    151000   4.0631391     -4857.7573      0.47234639    -4857.2849      1880.6956    
    152000   1.4633719     -4857.2324      0.17011932    -4857.0623      1908.8829    
    153000   0.47334356    -4857.9454      0.055026943   -4857.8904      1883.7021    
    154000   12.761287     -4858.4351      1.4835199     -4856.9515      1890.0332    
    155000   7.5442028     -4858.5852      0.87702558    -4857.7081      1881.2817    
    156000   17.827742     -4858.0418      2.0725034     -4855.9693      1887.5415    
    157000   6.0676258     -4858.5897      0.70537115    -4857.8843      1887.1205    
    158000   23.661109     -4856.7491      2.7506416     -4853.9985      1901.2165    
    159000   9.7588063     -4857.5548      1.1344768     -4856.4203      1886.3571    
    160000   7.4491835     -4857.7561      0.86597944    -4856.8901      1900.8062    
    161000   3.580642      -4858.5187      0.41625533    -4858.1024      1884.0559    
    162000   16.645646     -4858.0927      1.9350828     -4856.1576      1884.7956    
    163000   6.9536766     -4857.8176      0.80837597    -4857.0093      1891.8259    
    164000   8.6234424     -4858.0995      1.0024889     -4857.097       1895.2919    
    165000   10.199015     -4857.8651      1.1856517     -4856.6794      1880.2476    
    166000   15.902549     -4857.7388      1.8486966     -4855.8901      1887.158     
    167000   6.8565976     -4857.6615      0.79709038    -4856.8644      1882.064     
    168000   4.6030025     -4858.4698      0.53510637    -4857.9347      1893.4199    
    169000   5.3518002     -4857.8588      0.62215529    -4857.2366      1882.7542    
    170000   4.9448434     -4857.2129      0.57484592    -4856.6381      1886.5413    
    171000   9.3462643     -4857.6621      1.0865181     -4856.5755      1902.1548    
    172000   2.5909977     -4858.1813      0.3012076     -4857.8801      1883.0251    
    173000   9.1525362     -4857.7839      1.0639969     -4856.7199      1903.4274    
    174000   6.372522      -4858.1054      0.74081583    -4857.3645      1882.3095    
    175000   22.48206      -4857.394       2.6135752     -4854.7805      1887.8645    
    176000   4.3265617     -4856.8232      0.50296968    -4856.3203      1891.0415    
    177000   7.85877       -4856.3669      0.91359452    -4855.4533      1893.5337    
    178000   8.9215089     -4856.8946      1.0371396     -4855.8575      1885.5799    
    179000   8.4936563     -4857.8593      0.98740107    -4856.8719      1892.1215    
    180000   9.7061858     -4858.1665      1.1283596     -4857.0381      1883.2212    
    181000   3.1081955     -4857.9052      0.36133268    -4857.5438      1896.5059    
    182000   10.031879     -4855.8663      1.166222      -4854.7         1877.7644    
    183000   13.646386     -4857.075       1.5864141     -4855.4886      1885.7769    
    184000   4.9419071     -4857.9433      0.57450457    -4857.3688      1889.7337    
    185000   7.2587137     -4856.8051      0.84383702    -4855.9613      1902.8819    
    186000   3.849465      -4858.2021      0.44750644    -4857.7546      1881.2456    
    187000   9.456789      -4858.523       1.0993668     -4857.4236      1899.1457    
    188000   5.7791089     -4857.6413      0.67183061    -4856.9695      1882.5775    
    189000   26.08193      -4858.3664      3.0320659     -4855.3343      1889.7139    
    190000   9.090757      -4858.5403      1.056815      -4857.4835      1885.0773    
    191000   13.338087     -4858.2457      1.5505738     -4856.6951      1885.6475    
    192000   8.9348629     -4858.4525      1.038692      -4857.4139      1886.8599    
    193000   6.6018801     -4858.339       0.76747907    -4857.5715      1887.4332    
    194000   6.9222627     -4858.063       0.80472406    -4857.2583      1887.2602    
    195000   10.064559     -4857.9279      1.170021      -4856.7578      1893.2395    
    196000   4.8982856     -4857.961       0.5694335     -4857.3916      1888.1602    
    197000   22.119097     -4858.0087      2.5713802     -4855.4374      1882.3367    
    198000   2.7337783     -4857.5204      0.31780608    -4857.2026      1890.0077    
    199000   9.6050305     -4857.9735      1.1166001     -4856.8569      1887.8162    
    200000   4.0839127     -4858.4923      0.47476135    -4858.0176      1894.3593    
    201000   6.7476729     -4858.3015      0.78442772    -4857.517       1885.2278    
    202000   9.8294648     -4858.3218      1.1426909     -4857.1791      1880.2321    
    203000   2.8641735     -4858.4254      0.33296472    -4858.0924      1893.7217    
    204000   12.365829     -4858.0128      1.4375473     -4856.5752      1886.9222    
    205000   1.2788282     -4856.9324      0.14866582    -4856.7838      1887.4202    
    206000   7.7806225     -4857.006       0.90450976    -4856.1015      1883.6028    
    207000   6.4622303     -4857.6873      0.75124456    -4856.936       1887.6571    
    208000   12.459317     -4858.2292      1.4484154     -4856.7808      1882.2624    
    209000   3.6461643     -4857.9092      0.4238724     -4857.4854      1887.6457    
    210000   14.152372     -4857.0942      1.6452358     -4855.4489      1889.771     
    211000   3.1117814     -4856.4862      0.36174954    -4856.1244      1880.4886    
    212000   5.3571443     -4858.2733      0.62277656    -4857.6505      1889.3677    
    213000   12.447824     -4858.5251      1.4470794     -4857.078       1887.0241    
    214000   3.8707436     -4857.2501      0.44998011    -4856.8002      1879.8223    
    215000   11.796317     -4857.1079      1.3713406     -4855.7365      1908.0454    
    216000   1.943326      -4857.0609      0.22591474    -4856.835       1879.4532    
    217000   13.236364     -4858.0656      1.5387484     -4856.5268      1896.7983    
    218000   8.2926921     -4858.6014      0.96403866    -4857.6373      1885.4149    
    219000   7.6292764     -4857.7922      0.88691553    -4856.9053      1885.6876    
    220000   1.9640838     -4856.8066      0.22832786    -4856.5782      1889.9183    
    221000   14.657279     -4856.8299      1.703932      -4855.1259      1884.9984    
    222000   5.4281202     -4856.5761      0.63102761    -4855.945       1887.7165    
    223000   2.6651292     -4858.2632      0.30982551    -4857.9534      1882.4533    
    224000   7.8900432     -4858.0231      0.91723008    -4857.1058      1903.9993    
    225000   0.94304529    -4857.5366      0.10963052    -4857.427       1878.7923    
    226000   7.3052074     -4855.8117      0.84924199    -4854.9625      1968.3127    
    227000   0.66817633    -4858.1073      0.077676562   -4858.0297      1879.8823    
    228000   6.3527629     -4858.1205      0.7385188     -4857.382       1904.0731    
    229000   1.274332      -4857.7488      0.14814312    -4857.6007      1878.8782    
    230000   1.856956      -4856.213       0.21587409    -4855.9972      1931.4021    
    231000   0.74140202    -4857.0594      0.086189166   -4856.9733      1879.2589    
    232000   19.019837     -4857.6005      2.2110863     -4855.3894      1905.3913    
    233000   3.5486905     -4858.4765      0.41254092    -4858.0639      1885.1776    
    234000   14.181811     -4857.9144      1.6486581     -4856.2657      1884.2208    
    235000   7.8961774     -4857.6273      0.9179432     -4856.7094      1885.8089    
    236000   4.0402971     -4857.05        0.46969098    -4856.5803      1886.9945    
    237000   13.330458     -4857.5828      1.549687      -4856.0331      1894.4204    
    238000   3.2668582     -4858.103       0.37977747    -4857.7232      1890.7452    
    239000   4.4693062     -4857.6294      0.51956396    -4857.1098      1885.9027    
    240000   19.867626     -4857.8329      2.3096432     -4855.5232      1884.7569    
    241000   8.0173754     -4857.6021      0.93203265    -4856.6701      1889.2357    
    242000   3.4320087     -4857.4294      0.39897647    -4857.0304      1885.2006    
    243000   16.674025     -4857.7479      1.938382      -4855.8095      1891.3506    
    244000   3.5398618     -4858.3388      0.41151457    -4857.9273      1884.4002    
    245000   23.290286     -4857.1457      2.7075328     -4854.4381      1908.3905    
    246000   3.4779193     -4857.4643      0.40431365    -4857.06        1882.1544    
    247000   1.7978116     -4857.337       0.20899846    -4857.128       1905.9661    
    248000   1.378189      -4858.3246      0.16021667    -4858.1644      1884.792     
    249000   8.4685233     -4858.7693      0.98447932    -4857.7848      1884.9896    
    250000   19.611441     -4857.627       2.2798613     -4855.3471      1889.5366    
    251000   7.655478      -4857.0166      0.8899615     -4856.1266      1878.4585    
    252000   3.753674      -4858.1865      0.43637058    -4857.7501      1900.5823    
    253000   5.7648875     -4857.8297      0.67017735    -4857.1595      1880.3237    
    254000   2.92178       -4857.6929      0.33966157    -4857.3532      1885.1398    
    255000   12.151246     -4858.0575      1.4126017     -4856.6449      1890.5642    
    256000   2.3666083     -4857.8104      0.27512198    -4857.5353      1889.4465    
    257000   5.427688      -4857.687       0.63097737    -4857.056       1881.8259    
    258000   6.5788129     -4857.6379      0.76479747    -4856.8731      1888.702     
    259000   4.8735271     -4857.2948      0.56655529    -4856.7283      1888.5659    
    260000   2.3336786     -4856.9135      0.27129386    -4856.6422      1895.6712    
    261000   15.710415     -4857.5945      1.8263608     -4855.7681      1884.6127    
    262000   2.9548858     -4858.1937      0.34351018    -4857.8502      1887.8141    
    263000   15.46852      -4857.0695      1.7982401     -4855.2712      1908.6773    
    264000   2.8628579     -4857.2176      0.33281179    -4856.8848      1882.057     
    265000   8.8141759     -4857.2681      1.024662      -4856.2434      1897.5812    
    266000   4.0088018     -4858.1797      0.4660296     -4857.7137      1881.3246    
    267000   12.156981     -4858.1134      1.4132684     -4856.7002      1907.6898    
    268000   1.0255804     -4857.5885      0.11922536    -4857.4693      1880.116     
    269000   9.2598535     -4856.139       1.0764727     -4855.0625      1932.5796    
    270000   3.7156891     -4858.4724      0.43195477    -4858.0404      1881.3906    
    271000   20.151856     -4857.6274      2.3426853     -4855.2847      1900.9817    
    272000   2.2263454     -4857.2672      0.2588162     -4857.0084      1879.0451    
    273000   5.9123917     -4858.1604      0.68732495    -4857.4731      1903.9643    
    274000   0.9547094     -4858.5927      0.11098649    -4858.4817      1883.1443    
    275000   12.24172      -4856.3855      1.4231195     -4854.9623      1935.8014    
    276000   0.25203539    -4857.242       0.029299516   -4857.2127      1877.8934    
    277000   5.5229188     -4857.153       0.6420481     -4856.5109      1924.2405    
    278000   1.7643684     -4858.0576      0.20511064    -4857.8524      1879.347     
    279000   9.5726548     -4857.3545      1.1128364     -4856.2417      1919.801     
    280000   1.235898      -4858.2363      0.14367511    -4858.0926      1878.9254    
    281000   13.220133     -4856.5583      1.5368615     -4855.0214      1952.6953    
    282000   1.2593544     -4857.9163      0.14640196    -4857.7699      1878.0586    
    283000   8.8630834     -4857.8379      1.0303476     -4856.8075      1902.2569    
    284000   3.9809068     -4858.0392      0.46278675    -4857.5764      1882.7847    
    285000   10.708475     -4858.6144      1.2448772     -4857.3695      1887.1041    
    286000   6.3399226     -4858.3868      0.73702609    -4857.6498      1885.4775    
    287000   11.489047     -4858.374       1.33562       -4857.0384      1892.4029    
    288000   4.7956318     -4858.2581      0.55749984    -4857.7006      1879.7487    
    289000   9.3477651     -4858.0492      1.0866926     -4856.9625      1898.3347    
    290000   2.5990699     -4857.6795      0.30214601    -4857.3774      1888.6607    
    291000   11.042249     -4857.9598      1.283679      -4856.6761      1892.6419    
    292000   5.8148032     -4858.3823      0.67598013    -4857.7063      1883.1867    
    293000   11.456599     -4857.8157      1.3318479     -4856.4839      1901.2639    
    294000   2.5270288     -4856.7743      0.29377112    -4856.4806      1882.2328    
    295000   13.561009     -4857.3904      1.5764889     -4855.8139      1892.9218    
    296000   3.6996864     -4858.6771      0.43009444    -4858.247       1883.764     
    297000   12.25009      -4858.5653      1.4240924     -4857.1412      1888.7988    
    298000   6.7808951     -4857.6458      0.78828986    -4856.8575      1880.7991    
    299000   5.9778916     -4857.6576      0.69493941    -4856.9627      1885.2199    
    300000   8.184979      -4857.3794      0.95151684    -4856.4279      1901.4176    
    301000   2.6366611     -4857.3079      0.30651605    -4857.0013      1882.2037    
    302000   3.7417926     -4857.0333      0.43498935    -4856.5983      1904.4403    
    303000   1.6986359     -4858.17        0.19746913    -4857.9726      1887.1663    
    304000   19.536685     -4858.0309      2.2711707     -4855.7598      1895.7543    
    305000   5.0441192     -4857.2109      0.58638688    -4856.6245      1880.3835    
    306000   18.208593     -4857.888       2.1167779     -4855.7712      1887.7302    
    307000   7.0586937     -4858.3987      0.82058438    -4857.5781      1888.2542    
    308000   8.8088588     -4857.4124      1.0240439     -4856.3884      1878.6228    
    309000   8.7440955     -4857.6869      1.016515      -4856.6703      1885.554     
    310000   45.492757     -4857.7116      5.2886054     -4852.423       1888.4406    
    311000   5.1153852     -4857.6469      0.59467167    -4857.0522      1886.9377    
    312000   0.16022884    -4857.6903      0.018626858   -4857.6717      1894.9228    
    313000   7.5549172     -4858.1498      0.87827115    -4857.2716      1884.2946    
    314000   17.871428     -4858.4376      2.0775819     -4856.36        1882.8846    
    315000   4.1111441     -4858.033       0.47792704    -4857.5551      1885.3487    
    316000   10.230615     -4857.2378      1.1893253     -4856.0484      1888.9437    
    317000   1.3065309     -4857.5421      0.1518863     -4857.3903      1884.2657    
    318000   34.576757     -4858.4733      4.019603      -4854.4537      1893.0938    
    319000   7.8982127     -4858.3835      0.9181798     -4857.4653      1882.9824    
    320000   14.388063     -4857.5478      1.6726352     -4855.8752      1898.767     
    321000   4.5159433     -4857.8931      0.5249856     -4857.3681      1883.0819    
    322000   14.000776     -4858.4249      1.6276125     -4856.7973      1889.2026    
    323000   6.5378012     -4858.4267      0.7600298     -4857.6666      1887.7473    
    324000   7.2033986     -4857.5411      0.83740655    -4856.7037      1883.1077    
    325000   3.7945206     -4857.1088      0.44111906    -4856.6677      1892.3663    
    326000   7.774978      -4857.405       0.90385357    -4856.5011      1892.109     
    327000   11.499166     -4857.733       1.3367964     -4856.3962      1879.8024    
    328000   3.6946564     -4858.1506      0.42950969    -4857.7211      1891.2686    
    329000   0.69225879    -4858.2057      0.080476186   -4858.1252      1886.7955    
    330000   5.0365114     -4857.6878      0.58550247    -4857.1023      1904.641     
    331000   4.234398      -4856.46        0.49225551    -4855.9677      1879.3612    
    332000   15.752362     -4857.2322      1.8312371     -4855.401       1885.6212    
    333000   5.0512877     -4858.3508      0.58722024    -4857.7635      1889.8766    
    334000   10.224625     -4858.1415      1.1886289     -4856.9529      1883.968     
    335000   44.950922     -4857.4706      5.2256163     -4852.2449      1884.0916    
    336000   8.3702508     -4857.5535      0.97305498    -4856.5804      1881.9399    
    337000   3.7931893     -4858.256       0.4409643     -4857.8151      1892.2836    
    338000   1.5771303     -4858.6299      0.18334391    -4858.4466      1887.1942    
    339000   9.5327624     -4857.6444      1.1081988     -4856.5362      1884.1795    
    340000   11.257858     -4857.3622      1.3087439     -4856.0535      1888.7975    
    341000   1.0441471     -4858.1433      0.12138376    -4858.0219      1897.4413    
    342000   9.3820021     -4857.8944      1.0906727     -4856.8037      1888.4741    
    343000   6.2257567     -4857.7669      0.72375412    -4857.0431      1881.7256    
    344000   15.854351     -4857.4129      1.8430936     -4855.5698      1886.0844    
    345000   4.3817263     -4857.2925      0.50938266    -4856.7832      1884.7119    
    346000   4.307087      -4857.9087      0.50070572    -4857.408       1891.2054    
    347000   10.391474     -4858.2024      1.2080253     -4856.9944      1884.3139    
    348000   3.3454655     -4858.2684      0.38891569    -4857.8794      1887.5783    
    349000   14.598695     -4858.0586      1.6971216     -4856.3615      1897.5613    
    350000   5.106423      -4857.7987      0.5936298     -4857.2051      1883.656     
    351000   9.9706636     -4857.9428      1.1591055     -4856.7837      1892.1158    
    352000   1.5138852     -4858.4134      0.17599156    -4858.2374      1887.7864    
    353000   11.049826     -4858.3702      1.2845599     -4857.0857      1887.1404    
    354000   6.8824698     -4857.7658      0.80009807    -4856.9657      1885.1638    
    355000   7.8528342     -4857.6341      0.91290448    -4856.7212      1892.2726    
    356000   11.153973     -4857.2299      1.2966671     -4855.9333      1887.9159    
    357000   4.6154609     -4857.0112      0.53655468    -4856.4746      1885.385     
    358000   4.2825304     -4857.4438      0.49785098    -4856.9459      1895.1457    
    359000   5.9363039     -4857.9147      0.69010478    -4857.2246      1884.1935    
    360000   4.8752944     -4857.69        0.56676074    -4857.1232      1889.7333    
    361000   5.9973817     -4857.5762      0.69720517    -4856.879       1891.8579    
    362000   4.1566713     -4857.4501      0.48321966    -4856.9669      1880.771     
    363000   12.843305     -4858.4546      1.4930547     -4856.9615      1889.6841    
    364000   9.2277714     -4858.3654      1.0727431     -4857.2927      1883.3581    
    365000   8.3553202     -4857.4873      0.97131928    -4856.516       1891.5255    
    366000   1.9723084     -4857.4334      0.22928399    -4857.2041      1886.4465    
    367000   7.4470808     -4857.5462      0.865735      -4856.6805      1889.6973    
    368000   4.3640236     -4858.1581      0.50732469    -4857.6507      1892.8523    
    369000   1.1563584     -4858.5432      0.1344285     -4858.4087      1884.958     
    370000   13.98971      -4858.2423      1.6263261     -4856.616       1897.5137    
    371000   2.8620017     -4857.6862      0.33271226    -4857.3535      1882.7531    
    372000   9.4000106     -4856.3785      1.0927662     -4855.2857      1903.4478    
    373000   4.9939578     -4857.251       0.58055555    -4856.6705      1881.2272    
    374000   4.3102342     -4858.4765      0.50107159    -4857.9754      1890.8542    
    375000   7.8509502     -4858.5314      0.91268546    -4857.6187      1886.2219    
    376000   4.7169321     -4856.9597      0.54835086    -4856.4114      1886.3785    
    377000   5.554349      -4855.9981      0.64570192    -4855.3524      1889.0486    
    378000   12.031779     -4856.7787      1.3987135     -4855.38        1890.9148    
    379000   4.7603321     -4856.3537      0.55339618    -4855.8003      1887.8868    
    380000   18.890448     -4857.307       2.1960446     -4855.111       1886.0099    
    381000   5.3034377     -4857.8639      0.61653308    -4857.2474      1883.5719    
    382000   4.9082938     -4857.5175      0.57059696    -4856.947       1904.3708    
    383000   3.8261996     -4858.0664      0.44480179    -4857.6216      1890.078     
    384000   8.1479774     -4858.0553      0.94721534    -4857.108       1882.5606    
    385000   4.6731336     -4857.9105      0.54325922    -4857.3672      1898.182     
    386000   0.68205347    -4857.7591      0.079289802   -4857.6798      1883.9752    
    387000   26.326944     -4858.2378      3.0605491     -4855.1773      1897.1486    
    388000   4.7052227     -4858.1787      0.54698962    -4857.6317      1880.4172    
    389000   14.052151     -4856.8523      1.633585      -4855.2187      1916.5338    
    390000   0.67359623    -4857.808       0.078306634   -4857.7297      1884.5294    
    391000   7.7077017     -4857.3982      0.8960326     -4856.5022      1909.1281    
    392000   2.2033936     -4857.1084      0.25614802    -4856.8523      1879.2272    
    393000   13.391945     -4857.2779      1.5568349     -4855.7211      1903.5296    
    394000   1.8251142     -4858.1176      0.21217243    -4857.9055      1880.3419    
    395000   11.691309     -4857.94        1.3591333     -4856.5809      1898.4319    
    396000   1.5505037     -4858.2604      0.18024852    -4858.0802      1882.6262    
    397000   8.2488094     -4857.6384      0.95893722    -4856.6795      1900.7532    
    398000   0.79463614    -4857.7761      0.092377716   -4857.6837      1884.5421    
    399000   16.16981      -4858.2251      1.8797661     -4856.3454      1898.1338    
    400000   1.8779691     -4858.6276      0.2183169     -4858.4093      1882.3905    
    401000   4.0741737     -4858.5637      0.47362918    -4858.0901      1893.3436    
    402000   11.103355     -4858.2739      1.2907827     -4856.9831      1883.8456    
    403000   25.110472     -4857.1153      2.9191324     -4854.1962      1889.4955    
    404000   4.5651007     -4857.684       0.53070023    -4857.1533      1885.6368    
    405000   17.63318      -4857.6492      2.0498852     -4855.5994      1889.5112    
    406000   4.3184531     -4858.3824      0.50202705    -4857.8804      1881.8424    
    407000   6.2513288     -4857.4902      0.72672693    -4856.7635      1909.543     
    408000   1.3465165     -4857.2667      0.15653469    -4857.1102      1880.235     
    409000   15.842889     -4857.6434      1.841761      -4855.8016      1907.0845    
    410000   3.9952028     -4858.2254      0.46444869    -4857.761       1885.8723    
    411000   5.8457241     -4857.0854      0.67957473    -4856.4058      1890.2368    
    412000   10.184549     -4857.8646      1.1839701     -4856.6806      1889.9782    
    413000   4.7354702     -4858.5934      0.55050595    -4858.0429      1886.6076    
    414000   3.9262153     -4858.1776      0.45642878    -4857.7212      1891.2257    
    415000   11.461876     -4858.0752      1.3324613     -4856.7427      1884.033     
    416000   1.5650822     -4857.7151      0.18194329    -4857.5331      1887.1538    
    417000   5.6898405     -4858.0051      0.66145301    -4857.3437      1899.3422    
    418000   3.2483195     -4857.7912      0.37762231    -4857.4136      1882.908     
    419000   17.923895     -4857.2125      2.0836814     -4855.1288      1901.5934    
    420000   4.2381211     -4858.0779      0.49268832    -4857.5852      1884.2515    
    421000   19.645927     -4857.9896      2.2838703     -4855.7057      1888.5682    
    422000   4.0412752     -4857.6446      0.46980468    -4857.1748      1883.1042    
    423000   5.1581963     -4857.1821      0.59964853    -4856.5824      1880.8794    
    424000   20.364224     -4858.1116      2.3673734     -4855.7442      1894.9698    
    425000   5.3233391     -4858.3843      0.61884665    -4857.7654      1885.2568    
    426000   10.243283     -4856.3481      1.1907979     -4855.1573      1906.7474    
    427000   4.1775288     -4856.9861      0.48564438    -4856.5004      1881.5074    
    428000   2.6165492     -4857.3505      0.30417801    -4857.0463      1898.983     
    429000   3.1746433     -4858.2616      0.36905734    -4857.8926      1883.1959    
    430000   5.8264163     -4858.5725      0.67733017    -4857.8952      1890.4756    
    431000   4.3714329     -4858.0969      0.50818603    -4857.5887      1882.9304    
    432000   4.6280706     -4857.1182      0.53802057    -4856.5802      1901.7511    
    433000   4.0036065     -4855.7437      0.46542563    -4855.2783      1881.292     
    434000   23.398022     -4856.8407      2.7200574     -4854.1207      1888.3488    
    435000   6.3434308     -4858.5716      0.73743393    -4857.8342      1890.3737    
    436000   13.116678     -4857.6865      1.5248347     -4856.1617      1887.4893    
    437000   3.1449694     -4857.4903      0.3656077     -4857.1247      1879.6835    
    438000   14.393183     -4858.0174      1.6732304     -4856.3442      1901.7324    
    439000   2.6412903     -4858.2925      0.3070542     -4857.9854      1880.483     
    440000   6.0069636     -4857.0934      0.69831908    -4856.3951      1926.7773    
    441000   2.3975309     -4857.4424      0.27871678    -4857.1636      1881.5322    
    442000   10.838528     -4857.2845      1.2599961     -4856.0245      1910.1598    
    443000   3.6443653     -4858.5408      0.42366326    -4858.1171      1885.1399    
    444000   12.040597     -4858.1257      1.3997386     -4856.726       1885.4168    
    445000   1.9962504     -4858.2484      0.23206729    -4858.0164      1885.6592    
    446000   0.88422925    -4858.3053      0.10279306    -4858.2025      1885.9623    
    447000   13.441314     -4858.527       1.5625742     -4856.9644      1888.1626    
    448000   4.9524411     -4858.4384      0.57572917    -4857.8627      1887.0851    
    449000   7.7971223     -4856.1354      0.90642788    -4855.229       1892.6316    
    450000   16.585992     -4856.8157      1.9281479     -4854.8875      1884.2046    
    451000   6.2992868     -4857.9709      0.73230212    -4857.2386      1886.0762    
    452000   9.1566223     -4858.6211      1.0644719     -4857.5566      1887.6351    
    453000   4.9486755     -4858.465       0.5752914     -4857.8897      1884.3614    
    454000   11.653702     -4856.7574      1.3547614     -4855.4026      1884.198     
    455000   2.650615      -4856.2434      0.30813821    -4855.9353      1889.4769    
    456000   6.4966501     -4857.3678      0.75524592    -4856.6126      1894.1296    
    457000   6.5064805     -4857.8328      0.75638871    -4857.0765      1885.7488    
    458000   3.3154556     -4857.892       0.38542699    -4857.5065      1880.608     
    459000   8.4281524     -4857.7358      0.97978614    -4856.756       1904.2104    
    460000   2.531432      -4857.3217      0.294283      -4857.0275      1886.688     
    461000   6.8258529     -4857.6237      0.79351626    -4856.8302      1889.5223    
    462000   4.6464491     -4856.9156      0.54015711    -4856.3754      1890.9865    
    463000   5.3883193     -4858.0169      0.6264007     -4857.3905      1882.6508    
    464000   21.431573     -4858.7219      2.4914545     -4856.2304      1889.8961    
    465000   4.2822601     -4858.2123      0.49781955    -4857.7144      1881.6571    
    466000   16.490612     -4857.294       1.9170599     -4855.3769      1914.7563    
    467000   1.4096678     -4857.5321      0.16387613    -4857.3682      1881.2787    
    468000   9.7390155     -4856.9528      1.1321761     -4855.8206      1923.4016    
    469000   5.2139399     -4858.1881      0.60612882    -4857.5819      1886.7014    
    470000   21.712905     -4857.8834      2.5241597     -4855.3593      1884.4178    
    471000   6.9553597     -4857.7814      0.80857164    -4856.9728      1882.2763    
    472000   11.279296     -4857.8106      1.3112361     -4856.4994      1893.0213    
    473000   1.7983725     -4858.2964      0.20906366    -4858.0874      1887.5818    
    474000   14.856772     -4857.3046      1.7271234     -4855.5774      1897.5279    
    475000   4.3833338     -4856.9361      0.50956953    -4856.4266      1885.4287    
    476000   7.9681632     -4857.6249      0.92631165    -4856.6986      1889.2345    
    477000   9.5290398     -4858.1495      1.107766      -4857.0418      1881.5183    
    478000   1.3013886     -4857.755       0.15128849    -4857.6037      1895.6243    
    479000   7.5359088     -4858.3908      0.87606139    -4857.5147      1883.7009    
    480000   17.88844      -4857.7172      2.0795596     -4855.6377      1892.7992    
    481000   5.0910839     -4857.8101      0.59184661    -4857.2182      1882.1771    
    482000   24.961433     -4857.9956      2.9018063     -4855.0938      1888.7542    
    483000   5.0009521     -4858.1436      0.58136864    -4857.5622      1886.2712    
    484000   11.091322     -4858.0693      1.2893839     -4856.7799      1895.4984    
    485000   2.9369441     -4857.5474      0.34142443    -4857.2059      1882.1301    
    486000   14.400635     -4857.9776      1.6740968     -4856.3035      1884.0056    
    487000   4.8271687     -4858.4349      0.56116605    -4857.8738      1890.9018    
    488000   7.9620307     -4857.4249      0.92559875    -4856.4993      1888.2093    
    489000   9.4346196     -4855.4468      1.0967896     -4854.35        1878.0966    
    490000   10.017138     -4857.0638      1.1645083     -4855.8993      1880.8944    
    491000   6.6246126     -4858.5689      0.77012176    -4857.7988      1889.8215    
    492000   16.656791     -4858.1886      1.9363785     -4856.2522      1885.3729    
    493000   6.0949122     -4857.6092      0.70854324    -4856.9007      1887.6864    
    494000   5.7872356     -4857.7918      0.67277535    -4857.119       1896.6984    
    495000   5.3304636     -4858.4758      0.61967488    -4857.8561      1883.8978    
    496000   21.369025     -4858.2656      2.4841831     -4855.7814      1889.1615    
    497000   5.1806601     -4858.1174      0.60225998    -4857.5151      1883.4253    
    498000   24.303317     -4857.4314      2.8252993     -4854.6061      1914.3701    
    499000   3.0548635     -4857.789       0.35513275    -4857.4338      1879.3294    
    500000   6.3407954     -4856.7302      0.73712756    -4855.9931      1921.2881    
    501000   0.87730558    -4857.5889      0.10198817    -4857.4869      1883.7631    
    502000   15.01356      -4857.9563      1.7453503     -4856.2109      1893.1777    
    503000   1.9948513     -4858.3052      0.23190464    -4858.0733      1887.7957    
    504000   8.8864769     -4857.5851      1.0330671     -4856.552       1892.2845    
    505000   5.7841005     -4858.0058      0.6724109     -4857.3334      1882.0166    
    506000   13.631857     -4858.2103      1.584725      -4856.6256      1894.6924    
    507000   0.87903199    -4858.0973      0.10218887    -4857.9952      1883.9199    
    508000   6.3508327     -4858.2167      0.73829441    -4857.4784      1891.2208    
    509000   16.214797     -4858.0869      1.884996      -4856.2019      1882.6106    
    510000   2.6917628     -4857.3871      0.31292171    -4857.0742      1883.3012    
    511000   16.579847     -4858.1918      1.9274336     -4856.2644      1899.1572    
    512000   2.1479092     -4858.46        0.24969786    -4858.2103      1881.3379    
    513000   9.8848665     -4856.8867      1.1491315     -4855.7375      1926.7019    
    514000   1.8474964     -4857.2893      0.21477439    -4857.0745      1887.1948    
    515000   13.411401     -4857.5878      1.5590967     -4856.0287      1882.6364    
    516000   5.5456057     -4858.6709      0.6446855     -4858.0262      1887.1566    
    517000   34.349532     -4857.599       3.9931877     -4853.6058      1898.3759    
    518000   1.4283899     -4856.5534      0.1660526     -4856.3873      1883.5267    
    519000   11.434382     -4857.5973      1.3292652     -4856.2681      1898.0392    
    520000   6.3737871     -4858.2497      0.74096289    -4857.5087      1883.4776    
    521000   18.33611      -4858.2481      2.131602      -4856.1165      1890.5789    
    522000   1.7701936     -4857.8075      0.20578782    -4857.6017      1884.9063    
    523000   8.2365053     -4857.1639      0.95750685    -4856.2064      1897.6112    
    524000   2.8005923     -4858.4127      0.32557332    -4858.0871      1881.5158    
    525000   2.0114893     -4858.7562      0.23383883    -4858.5224      1887.7121    
    526000   5.7664793     -4858.3675      0.67036239    -4857.6971      1889.6629    
    527000   4.1210812     -4856.8793      0.47908225    -4856.4002      1883.969     
    528000   7.7875408     -4855.569       0.90531401    -4854.6637      1898.5382    
    529000   20.138405     -4855.9877      2.3411217     -4853.6465      1884.5549    
    530000   6.3337576     -4857.0744      0.7363094     -4856.338       1885.42      
    531000   6.0020347     -4858.207       0.69774609    -4857.5092      1887.2727    
    532000   4.4816464     -4858.7703      0.52099853    -4858.2493      1886.757     
    533000   12.733692     -4856.7811      1.480312      -4855.3008      1887.3579    
    534000   9.2868896     -4856.881       1.0796157     -4855.8014      1880.5346    
    535000   4.6475636     -4858.0466      0.54028667    -4857.5063      1893.4697    
    536000   3.9435807     -4857.9779      0.45844753    -4857.5194      1886.2971    
    537000   1.7256971     -4857.935       0.20061504    -4857.7344      1890.0309    
    538000   11.309992     -4857.9728      1.3148046     -4856.658       1883.0264    
    539000   17.442419     -4857.9723      2.027709      -4855.9446      1889.2508    
    540000   0.7705743     -4857.4841      0.089580489   -4857.3945      1886.5586    
    541000   10.070603     -4857.437       1.1707236     -4856.2663      1887.061     
    542000   10.038598     -4857.5084      1.167003      -4856.3414      1885.5245    
    543000   2.2429377     -4857.5876      0.26074508    -4857.3269      1894.3282    
    544000   12.85118      -4857.5039      1.4939701     -4856.0099      1884.2937    
    545000   1.8767479     -4857.546       0.21817493    -4857.3279      1886.394     
    546000   16.370086     -4857.614       1.9030485     -4855.711       1888.5954    
    547000   5.6693778     -4857.6427      0.6590742     -4856.9836      1888.6315    
    548000   5.7139318     -4858.2654      0.66425367    -4857.6012      1892.4503    
    549000   7.2370847     -4858.6575      0.84132261    -4857.8162      1884.0241    
    550000   13.811608     -4858.5273      1.6056214     -4856.9217      1884.9342    
    551000   0.26891843    -4857.7294      0.031262196   -4857.6982      1889.5749    
    552000   6.4012111     -4857.6005      0.74415098    -4856.8563      1904.331     
    553000   1.4826536     -4858.2682      0.17236085    -4858.0959      1883.3747    
    554000   11.29017      -4858.6856      1.3125002     -4857.3731      1889.3401    
    555000   3.5234705     -4857.6195      0.40960906    -4857.2099      1878.3638    
    556000   13.975256     -4857.1203      1.6246458     -4855.4957      1913.2469    
    557000   3.1856474     -4858.4147      0.37033658    -4858.0444      1886.4397    
    558000   6.2359281     -4857.1658      0.72493657    -4856.4408      1901.7208    
    559000   1.2481443     -4856.1946      0.14509876    -4856.0495      1877.523     
    560000   5.2395962     -4858.6606      0.6091114     -4858.0515      1891.2501    
    561000   8.1903889     -4858.4033      0.95214574    -4857.4512      1882.8005    
    562000   17.528156     -4856.385       2.037676      -4854.3474      1881.5514    
    563000   3.5436259     -4856.6955      0.41195215    -4856.2835      1887.9597    
    564000   19.162772     -4856.4616      2.2277027     -4854.2339      1887.5894    
    565000   8.2984122     -4856.0725      0.96470363    -4855.1078      1881.5495    
    566000   0.98203137    -4857.1628      0.11416271    -4857.0486      1894.0473    
    567000   15.030166     -4857.7816      1.7472807     -4856.0343      1882.9907    
    568000   2.9975478     -4858.4579      0.34846971    -4858.1094      1887.8753    
    569000   6.9834218     -4858.3653      0.8118339     -4857.5534      1886.8479    
    570000   11.151526     -4857.7263      1.2963826     -4856.4299      1893.0219    
    571000   3.0008371     -4856.7513      0.34885209    -4856.4025      1884.6271    
    572000   23.168456     -4857.5939      2.6933699     -4854.9006      1890.8589    
    573000   7.0019185     -4858.75        0.81398417    -4857.936       1885.3634    
    574000   18.428014     -4857.92        2.142286      -4855.7777      1882.7323    
    575000   1.5217445     -4857.1419      0.17690522    -4856.965       1885.5072    
    576000   18.165163     -4858.0014      2.1117291     -4855.8896      1881.947     
    577000   6.2642523     -4858.0276      0.7282293     -4857.2994      1888.176     
    578000   4.3920829     -4857.7421      0.51058663    -4857.2315      1890.2107    
    579000   18.098393     -4857.562       2.103967      -4855.458       1883.7227    
    580000   3.5699752     -4856.9701      0.4150153     -4856.5551      1884.3851    
    581000   6.4559629     -4858.1769      0.75051597    -4857.4264      1889.8414    
    582000   3.2704508     -4858.5713      0.38019512    -4858.1911      1888.3091    
    583000   11.512642     -4857.4848      1.338363      -4856.1464      1892.1682    
    584000   0.42546957    -4857.3122      0.049461515   -4857.2627      1885.3668    
    585000   11.252406     -4857.9092      1.3081102     -4856.6011      1887.0947    
    586000   7.1098404     -4858.5844      0.82653027    -4857.7579      1886.7734    
    587000   8.5962899     -4858.1519      0.99933239    -4857.1526      1888.1004    
    588000   5.2572104     -4855.4385      0.61115908    -4854.8273      1886.0865    
    589000   21.736771     -4856.5769      2.5269342     -4854.0499      1882.0936    
    590000   10.749279     -4858.1885      1.2496208     -4856.9389      1888.2029    
    591000   1.0193397     -4858.5016      0.11849987    -4858.3831      1885.5645    
    592000   3.2018808     -4858.7492      0.37222374    -4858.377       1888.7082    
    593000   6.6017569     -4857.4508      0.76746475    -4856.6833      1883.255     
    594000   11.442775     -4857.0342      1.3302409     -4855.7039      1897.439     
    595000   4.6971716     -4857.2109      0.54605367    -4856.6648      1883.6785    
    596000   20.659827     -4857.5993      2.4017377     -4855.1976      1886.1436    
    597000   5.1645379     -4858.1673      0.60038576    -4857.5669      1887.3407    
    598000   6.8730104     -4857.908       0.7989984     -4857.109       1887.9893    
    599000   4.6810981     -4858.0534      0.5441851     -4857.5092      1884.8258    
    600000   4.6957515     -4857.4401      0.54588859    -4856.8942      1904.5295    
    601000   5.4945596     -4857.6612      0.6387513     -4857.0225      1882.1264    
    602000   4.0924201     -4858.4784      0.47575035    -4858.0026      1883.3478    
    603000   10.121325     -4858.0954      1.1766201     -4856.9188      1893.9661    
    604000   4.3115315     -4856.839       0.50122239    -4856.3377      1879.6412    
    605000   5.7412896     -4857.3106      0.66743406    -4856.6432      1892.9338    
    606000   11.194763     -4857.0258      1.301409      -4855.7244      1879.3487    
    607000   3.2206366     -4857.8866      0.37440414    -4857.5121      1887.7251    
    608000   3.86129       -4857.9206      0.44888111    -4857.4717      1894.9296    
    609000   3.6925429     -4858.3368      0.42926399    -4857.9075      1883.9747    
    610000   17.812151     -4857.4702      2.0706909     -4855.3995      1895.292     
    611000   5.5092288     -4857.8059      0.64045661    -4857.1654      1889.2844    
    612000   13.538137     -4858.0713      1.5738299     -4856.4974      1890.969     
    613000   4.6586444     -4858.1995      0.54157483    -4857.6579      1882.6958    
    614000   10.035392     -4857.7766      1.1666303     -4856.6099      1898.6614    
    615000   2.4788388     -4857.7484      0.28816896    -4857.4603      1881.6157    
    616000   14.959288     -4856.2851      1.7390411     -4854.5461      1994.7124    
    617000   3.2056674     -4858.0673      0.37266393    -4857.6946      1880.7935    
    618000   10.574762     -4856.362       1.229333      -4855.1327      1913.4234    
    619000   2.1313391     -4857.7453      0.24777156    -4857.4975      1892.5456    
    620000   11.191928     -4857.5499      1.3010794     -4856.2488      1886.1332    
    621000   25.177851     -4857.3211      2.9269653     -4854.3942      1883.7785    
    622000   3.8029083     -4857.7622      0.44209414    -4857.3201      1887.0531    
    623000   6.6533796     -4857.9369      0.77346597    -4857.1634      1892.4738    
    624000   4.4913179     -4858.5893      0.52212286    -4858.0671      1882.8754    
    625000   12.543356     -4857.3839      1.4581851     -4855.9257      1902.6741    
    626000   1.6763425     -4857.1072      0.19487749    -4856.9123      1879.0859    
    627000   6.4106625     -4858.049       0.74524972    -4857.3038      1888.4486    
    628000   5.1444301     -4858.2269      0.59804818    -4857.6288      1894.0857    
    629000   10.496301     -4857.589       1.2202117     -4856.3687      1885.258     
    630000   3.2527523     -4858.2074      0.37813764    -4857.8293      1884.864     
    631000   28.362266     -4858.3411      3.2971586     -4855.044       1896.871     
    632000   4.8499589     -4857.6123      0.56381545    -4857.0485      1881.2593    
    633000   9.7260942     -4857.2039      1.1306739     -4856.0732      1898.1683    
    634000   3.6869157     -4858.116       0.42860982    -4857.6874      1881.2357    
    635000   0.77206344    -4858.5603      0.089753604   -4858.4706      1887.4846    
    636000   15.865805     -4857.7063      1.844425      -4855.8618      1898.8688    
    637000   5.3834695     -4857.691       0.6258369     -4857.0651      1883.2141    
    638000   25.754752     -4856.6406      2.9940309     -4853.6466      1902.5275    
    639000   7.1733965     -4856.8543      0.83391876    -4856.0204      1879.8639    
    640000   4.4462617     -4858.2639      0.516885      -4857.747       1886.1103    
    641000   1.2363628     -4857.9565      0.14372914    -4857.8128      1896.8177    
    642000   2.5548928     -4857.5062      0.29701036    -4857.2092      1888.4047    
    643000   13.635756     -4857.1318      1.5851783     -4855.5467      1884.3936    
    644000   6.3798964     -4858.0723      0.74167311    -4857.3306      1884.3552    
    645000   14.741293     -4858.5488      1.7136988     -4856.8351      1887.6527    
    646000   3.4354977     -4858.4983      0.39938207    -4858.0989      1884.2114    
    647000   21.799982     -4857.1722      2.5342826     -4854.6379      1906.1645    
    648000   3.2215057     -4856.7109      0.37450516    -4856.3364      1880.7146    
    649000   7.433513      -4857.3849      0.86415773    -4856.5208      1903.6928    
    650000   6.2903645     -4858.4889      0.73126489    -4857.7577      1884.3332    
    651000   10.442566     -4858.4553      1.2139649     -4857.2413      1885.1731    
    652000   4.6315901     -4858.2431      0.53842973    -4857.7047      1886.11      
    653000   19.770268     -4858.4797      2.2983251     -4856.1814      1888.0483    
    654000   4.2405927     -4857.8672      0.49297565    -4857.3742      1884.5938    
    655000   3.3959288     -4858.0684      0.39478213    -4857.6737      1895.1586    
    656000   18.41924      -4856.9563      2.141266      -4854.815       1890.937     
    657000   5.3727187     -4856.4876      0.6245871     -4855.863       1883.3227    
    658000   4.7170068     -4857.2622      0.54835955    -4856.7139      1880.3425    
    659000   5.4610074     -4858.5147      0.6348508     -4857.8798      1894.7632    
    660000   0.90640065    -4858.6825      0.10537052    -4858.5771      1883.3464    
    661000   5.964459      -4857.8701      0.69337785    -4857.1768      1907.9127    
    662000   1.6002025     -4857.7862      0.18602609    -4857.6001      1879.5539    
    663000   13.338835     -4856.9897      1.5506608     -4855.439       1960.9445    
    664000   1.2030192     -4858.1722      0.13985289    -4858.0324      1880.6179    
    665000   5.173975      -4857.5858      0.60148284    -4856.9843      1912.237     
    666000   0.26421499    -4858.1294      0.030715413   -4858.0986      1883.756     
    667000   11.990367     -4858.0014      1.3938993     -4856.6075      1900.7433    
    668000   0.87922132    -4858.4394      0.10221088    -4858.3372      1883.0874    
    669000   22.110939     -4856.3806      2.5704319     -4853.8102      2062.9548    
    670000   0.89367266    -4857.6758      0.10389087    -4857.5719      1879.7424    
    671000   7.2067092     -4857.8148      0.83779142    -4856.977       1907.11      
    672000   0.13055637    -4858.4757      0.015177386   -4858.4605      1882.8918    
    673000   8.9069801     -4858.5306      1.0354506     -4857.4952      1894.7291    
    674000   3.3794281     -4858.0128      0.39286389    -4857.62        1880.9472    
    675000   2.9209636     -4857.3872      0.33956667    -4857.0476      1896.7913    
    676000   8.5679295     -4857.4334      0.99603544    -4856.4373      1883.5347    
    677000   47.717213     -4858.014       5.547202      -4852.4668      1892.3346    
    678000   6.8980166     -4857.9857      0.80190541    -4857.1838      1887.486     
    679000   9.7607414     -4857.0843      1.1347017     -4855.9496      1891.2859    
    680000   5.2047134     -4858.0389      0.60505621    -4857.4338      1883.9329    
    681000   7.0321147     -4857.5751      0.81749453    -4856.7576      1902.1749    
    682000   2.0683543     -4857.012       0.24044948    -4856.7716      1880.9976    
    683000   16.439415     -4856.2319      1.9111081     -4854.3207      1906.6489    
    684000   4.4523777     -4857.5161      0.51759599    -4856.9985      1883.2768    
    685000   4.6863098     -4857.7351      0.54479097    -4857.1903      1896.3328    
    686000   4.0696393     -4858.5526      0.47310204    -4858.0795      1884.9598    
    687000   12.239091     -4857.4324      1.4228138     -4856.0096      1887.2081    
    688000   3.4396242     -4857.1448      0.39986179    -4856.7449      1887.493     
    689000   7.6780941     -4858.491       0.89259066    -4857.5984      1890.1525    
    690000   8.127191      -4858.1395      0.94479889    -4857.1947      1888.5658    
    691000   1.1525338     -4857.4142      0.13398389    -4857.2802      1885.9907    
    692000   14.764375     -4857.7155      1.7163821     -4855.9991      1883.0725    
    693000   10.15798      -4858.7221      1.1808813     -4857.5412      1886.5334    
    694000   4.1699918     -4858.0393      0.48476818    -4857.5545      1887.9648    
    695000   10.614988     -4856.8446      1.2340093     -4855.6105      1882.0986    
    696000   5.5988364     -4857.1944      0.65087364    -4856.5435      1886.7919    
    697000   11.382171     -4858.1323      1.3231955     -4856.8091      1891.6981    
    698000   3.2070244     -4858.5887      0.37282169    -4858.2159      1884.1748    
    699000   19.121724     -4858.2294      2.2229308     -4856.0065      1894.7289    
    700000   3.9415594     -4858.0064      0.45821255    -4857.5482      1888.0448    
    701000   10.58306      -4858.1036      1.2302975     -4856.8733      1883.9964    
    702000   15.296385     -4858.1493      1.7782291     -4856.371       1886.3882    
    703000   2.0145432     -4857.866       0.23419386    -4857.6319      1888.0182    
    704000   14.939658     -4857.9505      1.736759      -4856.2138      1891.2255    
    705000   7.6861796     -4857.395       0.89353062    -4856.5015      1886.1469    
    706000   6.6891685     -4857.8598      0.77762649    -4857.0822      1883.762     
    707000   15.707556     -4858.4662      1.8260284     -4856.6402      1883.3271    
    708000   1.8429316     -4857.5934      0.21424374    -4857.3792      1889.3389    
    709000   13.937515     -4857.6673      1.6202583     -4856.047       1881.4233    
    710000   3.9680071     -4857.4774      0.46128714    -4857.0161      1900.3358    
    711000   7.6941367     -4854.8539      0.89445564    -4853.9594      1879.567     
    712000   14.01814      -4855.2192      1.6296311     -4853.5896      1880.2241    
    713000   7.9833899     -4856.4859      0.92808178    -4855.5578      1894.281     
    714000   1.331137      -4857.6759      0.1547468     -4857.5211      1886.9966    
    715000   15.293282     -4858.4225      1.7778684     -4856.6446      1886.4821    
    716000   0.95765438    -4858.489       0.11132885    -4858.3777      1884.9342    
    717000   1.6918381     -4858.5703      0.19667887    -4858.3736      1891.0371    
    718000   9.9932017     -4857.9363      1.1617256     -4856.7745      1885.1166    
    719000   21.902467     -4857.648       2.5461966     -4855.1018      1884.3438    
    720000   8.3471238     -4858.3726      0.97036643    -4857.4022      1886.8903    
    721000   10.151033     -4857.791       1.1800737     -4856.6109      1889.9432    
    722000   4.8306925     -4857.3215      0.56157569    -4856.7599      1879.1338    
    723000   5.0302971     -4857.884       0.58478005    -4857.2992      1899.681     
    724000   3.4294061     -4858.1106      0.39867392    -4857.7119      1882.6023    
    725000   7.0532954     -4857.9209      0.81995682    -4857.1009      1884.3146    
    726000   7.5368118     -4858.0048      0.87616637    -4857.1286      1891.7342    
    727000   3.5383679     -4856.921       0.4113409     -4856.5097      1888.7479    
    728000   18.728539     -4857.8942      2.1772224     -4855.7169      1883.8444    
    729000   6.8861884     -4858.6848      0.80053036    -4857.8843      1886.1757    
    730000   28.236967     -4858.1095      3.2825924     -4854.8269      1887.8331    
    731000   6.104385      -4857.3431      0.70964447    -4856.6334      1881.5504    
    732000   6.7216067     -4857.2305      0.78139748    -4856.4491      1896.1083    
    733000   4.9570665     -4856.4968      0.57626687    -4855.9206      1879.9703    
    734000   11.070646     -4857.3353      1.2869802     -4856.0483      1889.5703    
    735000   5.5202947     -4857.9568      0.64174304    -4857.3151      1883.5415    
    736000   1.9032738     -4857.3283      0.22125861    -4857.107       1911.1174    
    737000   4.30597       -4858.2525      0.50057587    -4857.752       1882.5854    
    738000   20.099741     -4858.0138      2.3366269     -4855.6772      1901.5182    
    739000   2.2211444     -4857.8965      0.25821157    -4857.6383      1881.6431    
    740000   4.0632488     -4857.4665      0.47235914    -4856.9941      1904.4394    
    741000   3.3784131     -4857.7896      0.3927459     -4857.3969      1885.4744    
    742000   4.3162594     -4858.2045      0.50177203    -4857.7027      1882.7108    
    743000   14.80012      -4857.8788      1.7205375     -4856.1583      1903.7639    
    744000   1.4852622     -4858.3792      0.1726641     -4858.2065      1881.8357    
    745000   7.4035294     -4857.5         0.86067208    -4856.6394      1908.8665    
    746000   0.34570832    -4857.9023      0.040189143   -4857.8621      1882.6712    
    747000   3.0257721     -4857.7921      0.35175083    -4857.4404      1900.3095    
    748000   2.9467111     -4857.3972      0.34255986    -4857.0546      1878.3295    
    749000   5.2938278     -4858.3577      0.61541591    -4857.7423      1887.5502    
    750000   3.7488505     -4858.5723      0.43580984    -4858.1365      1890.2692    
    751000   4.9335225     -4856.2689      0.57352984    -4855.6954      1878.7819    
    752000   9.5853785     -4856.5804      1.1143155     -4855.4661      1889.202     
    753000   6.1470595     -4857.1866      0.71460545    -4856.472       1894.5598    
    754000   5.0404111     -4857.8457      0.58595581    -4857.2598      1889.0537    
    755000   2.9024776     -4858.4831      0.33741764    -4858.1456      1887.6351    
    756000   7.8610407     -4857.7775      0.9138585     -4856.8637      1882.36      
    757000   10.168643     -4857.7551      1.1821209     -4856.5729      1891.5376    
    758000   9.0825913     -4858.5118      1.0558657     -4857.4559      1886.2198    
    759000   8.3060574     -4857.7932      0.96559239    -4856.8277      1887.6179    
    760000   3.1485887     -4857.4264      0.36602845    -4857.0603      1884.7321    
    761000   1.8086232     -4857.727       0.21025533    -4857.5167      1883.9698    
    762000   12.112275     -4857.4191      1.4080713     -4856.011       1906.1795    
    763000   1.5674528     -4858.0549      0.18221888    -4857.8726      1881.471     
    764000   4.3872217     -4856.8015      0.5100215     -4856.2915      1922.8486    
    765000   1.5849876     -4856.3865      0.18425733    -4856.2023      1877.6399    
    766000   2.2298543     -4857.5159      0.25922412    -4857.2566      1902.433     
    767000   5.674023      -4857.8598      0.6596142     -4857.2002      1882.8887    
    768000   23.212389     -4857.6988      2.6984772     -4855.0003      1899.1222    
    769000   2.2344347     -4858.229       0.25975659    -4857.9692      1891.9917    
    770000   9.5812727     -4857.9542      1.1138382     -4856.8404      1886.9461    
    771000   6.4497526     -4857.8163      0.74979401    -4857.0665      1887.0347    
    772000   3.2618733     -4857.5522      0.37919797    -4857.173       1903.7104    
    773000   18.821907     -4857.4983      2.1880766     -4855.3102      1880.9593    
    774000   5.3523263     -4857.5853      0.62221645    -4856.9631      1886.9054    
    775000   9.0416512     -4857.4634      1.0511064     -4856.4123      1895.0391    
    776000   5.9449443     -4858.1237      0.69110924    -4857.4326      1882.3095    
    777000   16.488442     -4857.8731      1.9168076     -4855.9563      1891.4987    
    778000   3.209719      -4858.0391      0.37313495    -4857.6659      1889.0585    
    779000   2.0166646     -4857.2127      0.23444047    -4856.9782      1898.4329    
    780000   7.4099873     -4857.8127      0.86142282    -4856.9513      1882.3816    
    781000   9.3529729     -4858.057       1.087298      -4856.9697      1887.8225    
    782000   5.059285      -4858.6506      0.58814994    -4858.0625      1889.3688    
    783000   9.9675577     -4857.9088      1.1587445     -4856.7501      1889.9974    
    784000   11.761104     -4857.7426      1.3672471     -4856.3753      1891.1191    
    785000   13.636738     -4858.008       1.5852925     -4856.4228      1888.7144    
    786000   5.4457097     -4857.7444      0.63307242    -4857.1113      1888.7718    
    787000   4.1301804     -4858.3286      0.48014005    -4857.8484      1888.6877    
    788000   12.000032     -4857.6721      1.3950229     -4856.2771      1891.931     
    789000   3.5265765     -4857.8495      0.40997014    -4857.4395      1884.477     
    790000   7.897745      -4858.2892      0.91812543    -4857.3711      1893.4724    
    791000   13.716197     -4857.3708      1.5945298     -4855.7762      1880.2714    
    792000   5.490262      -4856.9763      0.63825169    -4856.3381      1883.6599    
    793000   5.1772165     -4857.8417      0.60185966    -4857.2398      1894.2317    
    794000   10.637904     -4858.0223      1.2366732     -4856.7856      1883.6038    
    795000   5.1273592     -4857.0582      0.59606367    -4856.4621      1883.4056    
    796000   3.5853593     -4858.073       0.41680373    -4857.6562      1892.8439    
    797000   5.9909848     -4858.1702      0.69646152    -4857.4737      1889.8153    
    798000   2.3285709     -4857.0606      0.27070008    -4856.7899      1884.3282    
    799000   8.1004465     -4857.5656      0.94168981    -4856.624       1893.7611    
    800000   0.29724355    -4857.8182      0.034555035   -4857.7837      1887.1475    
    801000   9.9705364     -4857.7312      1.1590907     -4856.5721      1886.0286    
    802000   9.1571702     -4858.0486      1.0645356     -4856.9841      1886.3255    
    803000   1.4437322     -4858.5475      0.16783617    -4858.3797      1887.5218    
    804000   11.056163     -4857.8886      1.2852965     -4856.6033      1896.476     
    805000   3.7705236     -4857.123       0.43832937    -4856.6847      1880.3896    
    806000   6.8386316     -4858.0402      0.79500181    -4857.2452      1885.7746    
    807000   8.7242333     -4858.3372      1.014206      -4857.323       1895.9325    
    808000   2.8483833     -4858.5153      0.3311291     -4858.1842      1883.0717    
    809000   37.162763     -4858.5667      4.3202304     -4854.2465      1891.6628    
    810000   3.2492555     -4858.1374      0.37773113    -4857.7597      1883.5846    
    811000   4.3355597     -4857.3678      0.50401572    -4856.8638      1903.4414    
    812000   3.250793      -4857.6907      0.37790987    -4857.3128      1880.3235    
    813000   11.341676     -4857.7362      1.3184879     -4856.4177      1908.9866    
    814000   2.4264023     -4858.2556      0.28207313    -4857.9735      1882.1023    
    815000   14.523587     -4857.2779      1.6883901     -4855.5895      1905.0813    
    816000   8.4116783     -4858.1802      0.97787099    -4857.2023      1884.1583    
    817000   17.192568     -4857.9819      1.9986634     -4855.9832      1888.3582    
    818000   7.0698968     -4857.6753      0.82188676    -4856.8534      1886.9103    
    819000   1.4109822     -4857.5391      0.16402893    -4857.3751      1891.6417    
    820000   13.427702     -4858.4289      1.5609917     -4856.8679      1883.6229    
    821000   5.3932538     -4858.5648      0.62697435    -4857.9378      1882.0688    
    822000   5.6213729     -4858.2641      0.65349355    -4857.6106      1895.1882    
    823000   4.5632803     -4857.9468      0.5304886     -4857.4163      1883.142     
    824000   17.079765     -4856.2263      1.9855498     -4854.2407      1932.351     
    825000   3.4332582     -4857.6936      0.39912173    -4857.2944      1884.8215    
    826000   2.8625201     -4856.3283      0.33277252    -4855.9956      1902.873     
    827000   1.384537      -4858.0323      0.16095463    -4857.8713      1885.4757    
    828000   8.9523997     -4857.159       1.0407307     -4856.1182      1931.4132    
    829000   2.602351      -4857.9696      0.30252745    -4857.6671      1879.6855    
    830000   2.2667655     -4857.3617      0.2635151     -4857.0982      1913.8991    
    831000   1.1019545     -4857.545       0.12810396    -4857.4169      1879.6781    
    832000   9.9062367     -4857.757       1.1516158     -4856.6053      1906.4219    
    833000   4.1463522     -4857.9991      0.48202004    -4857.5171      1883.0315    
    834000   11.781452     -4857.9457      1.3696125     -4856.5761      1891.5264    
    835000   2.7186265     -4857.9084      0.31604466    -4857.5923      1888.368     
    836000   7.519619      -4858.4681      0.87416768    -4857.5939      1887.0153    
    837000   10.02867      -4858.1262      1.1658489     -4856.9603      1887.312     
    838000   8.6143556     -4858.3367      1.0014326     -4857.3353      1882.5869    
    839000   10.522206     -4858.262       1.2232232     -4857.0388      1894.8818    
    840000   0.29963137    -4858.1716      0.034832623   -4858.1368      1886.1665    
    841000   9.5018776     -4858.4105      1.1046084     -4857.3059      1895.2732    
    842000   4.8442229     -4856.6388      0.56314862    -4856.0756      1881.0335    
    843000   19.310662     -4856.8088      2.2448951     -4854.5639      1891.5164    
[...]
   1787000   10.93676      -4859.9421      1.2714158     -4858.6707      1916.9375    
   1788000   5.3978301     -4860.2567      0.62750634    -4859.6292      1893.6197    
   1789000   0.96089619    -4859.4472      0.11170571    -4859.3355      1896.4825    
   1790000   4.7232746     -4860.7068      0.54908819    -4860.1577      1890.5764    
   1791000   2.3254095     -4861.0188      0.27033256    -4860.7484      1893.2353    
   1792000   5.0507885     -4859.6866      0.5871622     -4859.0994      1887.5461    
   1793000   22.510111     -4860.2194      2.6168362     -4857.6026      1906.1258    
   1794000   1.3871062     -4860.8731      0.1612533     -4860.7119      1882.8613    
   1795000   10.771651     -4859.9641      1.2522215     -4858.7119      1905.4549    
   1796000   8.7152405     -4859.8235      1.0131606     -4858.8104      1881.6582    
   1797000   2.8254287     -4860.8703      0.32846058    -4860.5419      1900.7706    
   1798000   3.0688657     -4859.856       0.35676053    -4859.4992      1886.4463    
   1799000   4.8089397     -4860.2479      0.5590469     -4859.6888      1899.8543    
   1800000   3.922302      -4861.046       0.45597385    -4860.59        1889.3969    
   1801000   8.2165603     -4860.848       0.95518822    -4859.8928      1886.6343    
   1802000   10.16241      -4859.927       1.1813963     -4858.7456      1897.0723    
   1803000   7.4775044     -4860.0306      0.86927179    -4859.1613      1881.2408    
   1804000   1.6541105     -4860.904       0.19229298    -4860.7117      1896.3869    
   1805000   14.241218     -4861.188       1.6555642     -4859.5325      1892.8426    
   1806000   2.779627      -4860.5119      0.32313607    -4860.1887      1898.387     
   1807000   12.232879     -4859.9489      1.4220917     -4858.5268      1892.291     
   1808000   6.67037       -4860.7236      0.77544113    -4859.9482      1896.7898    
   1809000   14.417085     -4860.5367      1.6760091     -4858.8607      1894.3431    
   1810000   3.2315462     -4859.9783      0.37567239    -4859.6026      1888.906     
   1811000   3.1002237     -4859.5697      0.36040593    -4859.2093      1958.1556    
   1812000   4.3204085     -4861.0596      0.50225437    -4860.5574      1885.5841    
   1813000   5.8272301     -4859.4347      0.67742478    -4858.7573      1885.6697    
   1814000   7.4876129     -4860.9998      0.87044692    -4860.1294      1898.1717    
   1815000   9.7055079     -4860.3036      1.1282807     -4859.1753      1882.549     
   1816000   3.8738104     -4859.2265      0.45033663    -4858.7761      1889.7317    
   1817000   11.202084     -4861.2947      1.3022601     -4859.9925      1891.9827    
   1818000   3.5820797     -4861.0016      0.41642247    -4860.5852      1894.7824    
   1819000   5.5498539     -4860.0898      0.64517935    -4859.4446      1887.6469    
   1820000   17.847792     -4860.0456      2.0748343     -4857.9708      1884.8676    
   1821000   5.6266318     -4860.9658      0.65410491    -4860.3117      1897.4499    
   1822000   16.421077     -4859.6869      1.9089764     -4857.7779      1885.3335    
   1823000   5.2953192     -4859.5746      0.61558929    -4858.959       1906.9573    
   1824000   4.9526519     -4861.048       0.57575367    -4860.4722      1885.3858    
   1825000   5.6429469     -4860.3143      0.65600156    -4859.6583      1891.3912    
   1826000   13.954552     -4859.7586      1.6222389     -4858.1363      1896.1699    
   1827000   10.888856     -4860.1759      1.2658469     -4858.91        1909.4095    
   1828000   1.6702932     -4860.5741      0.19417424    -4860.38        1885.2524    
   1829000   16.505245     -4860.7595      1.918761      -4858.8408      1900.9727    
   1830000   0.45950495    -4860.5483      0.053418182   -4860.4948      1898.0822    
   1831000   10.2083       -4860.2079      1.1867311     -4859.0212      1886.2056    
   1832000   0.77121171    -4860.6337      0.089654589   -4860.544       1892.9426    
   1833000   23.214173     -4860.7188      2.6986846     -4858.0201      1893.5856    
   1834000   4.6950075     -4860.7273      0.5458021     -4860.1815      1891.5631    
   1835000   2.712392      -4860.7921      0.31531989    -4860.4768      1887.9833    
   1836000   6.4634264     -4861.171       0.7513836     -4860.4196      1891.4907    
   1837000   6.5838341     -4859.3092      0.7653812     -4858.5438      1887.7543    
   1838000   7.4890582     -4858.9428      0.87061494    -4858.0722      1905.1115    
   1839000   4.9706542     -4860.4482      0.57784646    -4859.8704      1888.0567    
   1840000   4.7593902     -4860.0897      0.55328669    -4859.5365      1889.2462    
   1841000   17.934844     -4860.798       2.0849541     -4858.7131      1899.4578    
   1842000   1.3943124     -4860.9006      0.16209103    -4860.7385      1886.8252    
   1843000   9.4038459     -4860.6512      1.0932121     -4859.558       1894.6834    
   1844000   10.517503     -4860.877       1.2226765     -4859.6543      1891.868     
   1845000   2.4771023     -4860.8979      0.28796709    -4860.6099      1887.9996    
   1846000   13.961891     -4860.6752      1.6230921     -4859.0521      1896.5568    
   1847000   8.2548385     -4860.3088      0.95963812    -4859.3491      1892.1983    
   1848000   3.1305391     -4860.8731      0.36393015    -4860.5091      1887.5429    
   1849000   8.0454566     -4860.6944      0.93529713    -4859.7591      1898.3745    
   1850000   2.3630961     -4860.6762      0.27471368    -4860.4015      1886.9337    
   1851000   13.431878     -4859.4948      1.5614772     -4857.9334      1903.0223    
   1852000   9.3695913     -4860.3319      1.0892299     -4859.2427      1884.9305    
   1853000   4.4399827     -4860.8158      0.51615505    -4860.2997      1893.4979    
   1854000   17.08166      -4860.5758      1.9857701     -4858.59        1901.0586    
   1855000   2.6814097     -4860.5111      0.31171815    -4860.1994      1883.9669    
   1856000   2.8839814     -4860.7589      0.33526743    -4860.4236      1896.258     
   1857000   16.115317     -4860.3299      1.8734312     -4858.4565      1892.8224    
   1858000   4.2368303     -4860.7104      0.49253827    -4860.2179      1889.7365    
   1859000   4.9247734     -4860.7602      0.57251275    -4860.1877      1900.2603    
   1860000   7.1850355     -4859.2965      0.83527182    -4858.4612      1877.7803    
   1861000   2.5686233     -4861.0737      0.29860654    -4860.775       1898.3954    
   1862000   10.063066     -4860.4585      1.1698475     -4859.2887      1892.2157    
   1863000   5.5941527     -4859.9845      0.65032916    -4859.3342      1886.9132    
   1864000   2.6407429     -4860.6462      0.30699056    -4860.3392      1897.2364    
   1865000   10.594014     -4861.2126      1.231571      -4859.9811      1888.5473    
   1866000   1.3474055     -4859.6309      0.15663803    -4859.4742      1888.5203    
   1867000   11.648616     -4861.09        1.3541701     -4859.7359      1895.3867    
   1868000   2.1507105     -4861.2374      0.25002352    -4860.9874      1889.0984    
   1869000   4.3005167     -4859.1641      0.49994192    -4858.6642      1890.0059    
   1870000   16.944655     -4858.6127      1.9698431     -4856.6429      1884.4044    
   1871000   10.265204     -4861.0687      1.1933463     -4859.8753      1895.7421    
   1872000   10.624773     -4861.0419      1.2351467     -4859.8067      1889.5894    
   1873000   3.7927742     -4858.3467      0.44091604    -4857.9058      1885.2153    
   1874000   3.880974      -4859.9514      0.45116941    -4859.5002      1905.1956    
   1875000   5.323186      -4860.876       0.61882885    -4860.2571      1885.7303    
   1876000   2.4952551     -4861.0297      0.29007738    -4860.7396      1896.8322    
   1877000   9.6531479     -4859.6508      1.1221938     -4858.5286      1883.2207    
   1878000   4.5645719     -4860.3293      0.53063875    -4859.7986      1888.9333    
   1879000   3.8778364     -4861.171       0.45080465    -4860.7202      1892.2553    
   1880000   13.829797     -4860.3264      1.6077359     -4858.7186      1888.8507    
   1881000   3.8100628     -4860.7029      0.44292586    -4860.26        1891.9313    
   1882000   2.4958071     -4861.3063      0.29014155    -4861.0162      1890.3262    
   1883000   6.9293507     -4859.8866      0.80554805    -4859.081       1886.6089    
   1884000   28.750862     -4860.12        3.3423334     -4856.7777      1905.2775    
   1885000   4.9984537     -4860.6998      0.5810782     -4860.1188      1885.3155    
   1886000   2.834401      -4859.893       0.32950363    -4859.5635      1905.1576    
   1887000   9.9253815     -4860.7751      1.1538414     -4859.6213      1900.4936    
   1888000   4.7733544     -4860.8096      0.55491005    -4860.2547      1885.5941    
   1889000   7.9671248     -4860.6094      0.92619094    -4859.6832      1891.5646    
   1890000   7.0929221     -4860.5904      0.82456348    -4859.7658      1901.0215    
   1891000   1.0727132     -4859.5338      0.12470461    -4859.4091      1883.7375    
   1892000   2.647653      -4860.9135      0.30779388    -4860.6057      1897.1086    
   1893000   7.4483049     -4861.0885      0.86587731    -4860.2226      1886.4298    
   1894000   8.5947603     -4860.4805      0.99915456    -4859.4813      1885.9135    
   1895000   7.8594116     -4859.7612      0.91366911    -4858.8475      1888.8579    
   1896000   2.7858607     -4860.4988      0.32386075    -4860.1749      1894.2975    
   1897000   3.9217711     -4859.4171      0.45591213    -4858.9612      1894.8575    
   1898000   7.1862078     -4859.0168      0.83540809    -4858.1814      1918.2914    
   1899000   2.4901505     -4860.5908      0.28948396    -4860.3014      1892.6868    
   1900000   11.597797     -4858.9032      1.3482623     -4857.555       1911.2506    
   1901000   5.4689602     -4860.5391      0.63577533    -4859.9033      1894.8503    
   1902000   14.330552     -4860.1806      1.6659495     -4858.5146      1888.8402    
   1903000   11.128153     -4859.267       1.2936654     -4857.9733      1886.5035    
   1904000   6.9981384     -4860.4886      0.81354472    -4859.675       1888.7898    
   1905000   1.2120865     -4860.9982      0.14090698    -4860.8573      1894.4842    
   1906000   11.63707      -4860.1064      1.3528279     -4858.7536      1884.9286    
   1907000   14.452006     -4860.5297      1.6800687     -4858.8496      1889.925     
   1908000   2.799107      -4861.2675      0.32540064    -4860.9421      1894.2238    
   1909000   5.2144275     -4860.7605      0.60618549    -4860.1543      1884.2848    
   1910000   8.674888      -4859.8206      1.0084695     -4858.8122      1900.3398    
   1911000   8.4811652     -4860.6424      0.98594896    -4859.6565      1886.7185    
   1912000   5.9507052     -4861.2618      0.69177896    -4860.5701      1889.6723    
   1913000   4.1232969     -4859.9072      0.47933983    -4859.4278      1898.9474    
   1914000   3.3454406     -4858.9806      0.38891279    -4858.5917      1881.9199    
   1915000   6.9704361     -4860.4007      0.81032429    -4859.5903      1898.9257    
   1916000   5.4009356     -4860.8519      0.62786737    -4860.2241      1892.3417    
   1917000   5.869468      -4859.4499      0.682335      -4858.7675      1890.6354    
   1918000   6.9167729     -4860.7227      0.80408587    -4859.9186      1888.0279    
   1919000   3.4621992     -4860.6668      0.40248617    -4860.2643      1891.253     
   1920000   8.2857719     -4860.4051      0.96323417    -4859.4419      1892.295     
   1921000   7.2355025     -4860.7483      0.84113868    -4859.9072      1886.3363    
   1922000   5.4501087     -4860.4136      0.63358381    -4859.78        1889.1659    
   1923000   14.466969     -4860.6181      1.6818082     -4858.9363      1890.6341    
   1924000   4.7304921     -4860.1666      0.54992724    -4859.6167      1892.305     
   1925000   1.9221662     -4860.3949      0.22345488    -4860.1714      1887.9819    
   1926000   22.237674     -4861.1291      2.585165      -4858.544       1898.3644    
   1927000   2.005205      -4860.4869      0.23310828    -4860.2538      1888.6729    
   1928000   1.5269762     -4860.0791      0.17751341    -4859.9016      1890.3573    
   1929000   13.76147      -4860.8485      1.5997928     -4859.2487      1892.206     
   1930000   2.9597439     -4860.5601      0.34407494    -4860.216       1888.2885    
   1931000   3.3549229     -4860.2019      0.39001513    -4859.8119      1892.9641    
   1932000   14.134122     -4860.7095      1.6431142     -4859.0663      1891.9898    
   1933000   1.0618497     -4860.1445      0.12344172    -4860.0211      1892.2954    
   1934000   11.996294     -4860.5203      1.3945883     -4859.1257      1887.6439    
   1935000   2.5339101     -4860.1025      0.29457108    -4859.808       1891.0389    
   1936000   5.225271      -4860.2385      0.60744607    -4859.6311      1885.5416    
   1937000   26.407249     -4860.4977      3.0698847     -4857.4278      1886.7384    
   1938000   7.0966614     -4860.5937      0.82499819    -4859.7687      1896.3922    
   1939000   10.695755     -4860.5641      1.2433986     -4859.3207      1880.5272    
   1940000   0.42161027    -4860.4917      0.049012865   -4860.4427      1902.4249    
   1941000   5.3940993     -4859.1149      0.62707263    -4858.4878      1876.6831    
   1942000   4.0122096     -4860.8797      0.46642575    -4860.4133      1896.5824    
   1943000   16.275104     -4859.9254      1.8920068     -4858.0334      1893.6938    
   1944000   10.409788     -4860.8861      1.2101544     -4859.676       1897.1121    
   1945000   1.6991246     -4861.1964      0.19752593    -4860.9989      1892.1819    
   1946000   13.365408     -4860.4502      1.5537499     -4858.8965      1881.8521    
   1947000   6.9374299     -4860.4336      0.80648727    -4859.6271      1897.6008    
   1948000   3.0181785     -4861.2472      0.35086806    -4860.8963      1889.2436    
   1949000   10.996621     -4860.6272      1.2783747     -4859.3488      1883.5527    
   1950000   4.1877109     -4859.9381      0.48682806    -4859.4513      1898.2499    
   1951000   6.5613964     -4861.2488      0.76277277    -4860.4861      1894.272     
   1952000   6.0688278     -4860.8719      0.70551089    -4860.1664      1894.8919    
   1953000   2.986728      -4859.5087      0.34721188    -4859.1615      1885.6416    
   1954000   8.7294875     -4860.6057      1.0148168     -4859.5909      1900.6307    
   1955000   8.8240814     -4860.4838      1.0258135     -4859.458       1885.1956    
   1956000   7.5442968     -4859.3158      0.87703651    -4858.4387      1901.1832    
   1957000   4.8068187     -4860.727       0.55880033    -4860.1682      1884.6266    
   1958000   11.55806      -4860.8714      1.3436428     -4859.5277      1895.5845    
   1959000   11.554232     -4859.9462      1.3431978     -4858.603       1883.0204    
   1960000   12.67173      -4860.7808      1.4731087     -4859.3077      1889.1071    
   1961000   7.8668043     -4860.9559      0.91452852    -4860.0414      1900.7181    
   1962000   2.1816068     -4860.9122      0.25361526    -4860.6586      1883.7267    
   1963000   6.9812527     -4860.3553      0.81158174    -4859.5437      1892.6551    
   1964000   13.218431     -4860.4137      1.5366637     -4858.8771      1897.6078    
   1965000   0.54752026    -4860.7182      0.063650102   -4860.6546      1894.8662    
   1966000   10.869501     -4860.4039      1.2635968     -4859.1403      1888.3108    
   1967000   5.1234372     -4860.699       0.59560773    -4860.1034      1892.8988    
   1968000   16.861119     -4860.9363      1.9601319     -4858.9762      1889.2445    
   1969000   10.330065     -4860.7324      1.2008865     -4859.5315      1887.8938    
   1970000   0.92892662    -4859.8767      0.1079892     -4859.7687      1890.8079    
   1971000   16.64898      -4860.6482      1.9354705     -4858.7127      1892.9559    
   1972000   1.8682597     -4860.026       0.21718816    -4859.8088      1896.2769    
   1973000   4.4813474     -4860.391       0.52096376    -4859.87        1886.3981    
   1974000   20.448112     -4861.1212      2.3771256     -4858.7441      1896.7679    
   1975000   2.4555795     -4860.5159      0.28546502    -4860.2304      1891.9957    
   1976000   4.494852      -4860.3858      0.52253369    -4859.8633      1886.0599    
   1977000   10.33707      -4860.5581      1.2017008     -4859.3564      1897.5736    
   1978000   2.8534152     -4860.3527      0.33171407    -4860.0209      1889.9742    
   1979000   5.8506858     -4860.8239      0.68015154    -4860.1438      1887.4304    
   1980000   8.9213623     -4860.3288      1.0371226     -4859.2916      1897.342     
   1981000   2.6516469     -4859.4272      0.30825817    -4859.119       1887.9505    
   1982000   8.4789458     -4861.1697      0.98569094    -4860.184       1892.7044    
   1983000   2.9360846     -4861.2132      0.34132451    -4860.8719      1890.4429    
   1984000   2.328604      -4859.7105      0.27070392    -4859.4398      1888.0665    
   1985000   6.5654593     -4860.7188      0.7632451     -4859.9556      1889.7843    
   1986000   11.200605     -4860.837       1.3020881     -4859.5349      1896.6427    
   1987000   1.3449052     -4860.5852      0.15634737    -4860.4288      1885.81      
   1988000   28.510973     -4860.9466      3.314446      -4857.6322      1896.5321    
   1989000   4.6892404     -4860.3828      0.54513166    -4859.8377      1895.3893    
   1990000   2.9325774     -4859.99        0.34091679    -4859.6491      1879.3135    
   1991000   2.7554758     -4859.8683      0.32032845    -4859.5479      1906.8083    
   1992000   9.8557368     -4859.9504      1.1457451     -4858.8047      1879.8601    
   1993000   5.5094628     -4861.2543      0.64048382    -4860.6138      1889.687     
   1994000   11.651679     -4859.7241      1.3545262     -4858.3696      1900.2072    
   1995000   6.2950581     -4860.348       0.73181053    -4859.6162      1889.1495    
   1996000   3.4922577     -4860.7035      0.40598051    -4860.2975      1892.5858    
   1997000   2.5359228     -4861.1921      0.29480507    -4860.8973      1889.5468    
   1998000   13.17519      -4859.5574      1.5316368     -4858.0258      1892.101     
   1999000   18.212536     -4859.2941      2.1172363     -4857.1769      1889.8665    
   2000000   5.8291145     -4860.4546      0.67764384    -4859.777       1888.9814    
   2000009   5.728897      -4860.454       0.66599339    -4859.788       1888.7272    
Loop time of 1234.13 on 28 procs for 2000000 steps with 40 atoms

Performance: 35.004 ns/day, 0.686 hours/ns, 1620.578 timesteps/s, 64.823 katom-step/s
99.4% CPU use with 28 MPI tasks x 1 OpenMP threads

MPI task timing breakdown:
Section |  min time  |  avg time  |  max time  |%varavg| %total
---------------------------------------------------------------
Pair    | 139.3      | 243.56     | 571.45     | 622.7 | 19.74
Neigh   | 0.037645   | 0.050485   | 0.056465   |   2.9 |  0.00
Comm    | 27.46      | 152.54     | 363.14     |1021.6 | 12.36
Output  | 0.17903    | 0.33707    | 0.38187    |   6.5 |  0.03
Modify  | 618.42     | 829.3      | 968.9      | 551.7 | 67.20
Other   |            | 8.348      |            |       |  0.68

Nlocal:        1.42857 ave          10 max           0 min
Histogram: 20 1 2 0 1 1 0 0 2 1
Nghost:           47.5 ave          53 max          38 min
Histogram: 3 1 4 0 3 0 2 0 5 10
Neighs:        51.1071 ave         344 max           0 min
Histogram: 20 1 2 0 1 1 0 0 2 1

Total # of neighbors = 1431
Ave neighs/atom = 35.775
Neighbor list builds = 1860
Dangerous builds = 0

# Save final structure after MD
write_data final_structure.data  # Save final structure for post-processing
System init for write_data ...

Total wall time: 0:20:34
