
                                 *****************
                                 * O   R   C   A *
                                 *****************

                                            #,                                       
                                            ###                                      
                                            ####                                     
                                            #####                                    
                                            ######                                   
                                           ########,                                 
                                     ,,################,,,,,                         
                               ,,#################################,,                 
                          ,,##########################################,,             
                       ,#########################################, ''#####,          
                    ,#############################################,,   '####,        
                  ,##################################################,,,,####,       
                ,###########''''           ''''###############################       
              ,#####''   ,,,,##########,,,,          '''####'''          '####       
            ,##' ,,,,###########################,,,                        '##       
           ' ,,###''''                  '''############,,,                           
         ,,##''                                '''############,,,,        ,,,,,,###''
      ,#''                                            '''#######################'''  
     '                                                          ''''####''''         
             ,#######,   #######,   ,#######,      ##                                
            ,#'     '#,  ##    ##  ,#'     '#,    #''#        ,####,   ,####,        
            ##       ##  ##   ,#'  ##            #'  '#       #'       #'  '#        
            ##       ##  #######   ##           ,######,      #####,   #    #        
            '#,     ,#'  ##    ##  '#,     ,#' ,#      #,     #,   #   #,  ,#        
             '#######'   ##     ##  '#######'  #'      '#     '####' # '####'        



                #########################################################
                #                        -***-                          #
                #          Department of theory and spectroscopy        #
                #                                                       #
                #                      Frank Neese                      #
                #                                                       #
                #     Directorship, Architecture, Infrastructure        #
                #                    SHARK, DRIVERS                     #
                #        Core code/Algorithms in most modules           #
                #                                                       #
                #        Max Planck Institute fuer Kohlenforschung      #
                #                Kaiser Wilhelm Platz 1                 #
                #                 D-45470 Muelheim/Ruhr                 #
                #                      Germany                          #
                #                                                       #
                #                  All rights reserved                  #
                #                        -***-                          #
                #########################################################


                         Program Version 6.0.1  -  RELEASE   -


 With contributions from (in alphabetic order):
[Max-Planck-Institut fuer Kohlenforschung]                               
  Daniel Aravena         : Magnetic Suceptibility                        
  Michael Atanasov       : Ab Initio Ligand Field Theory (pilot matlab implementation)
  Alexander A. Auer      : GIAO ZORA, VPT2 properties, NMR spectrum      
  Ute Becker             : All parallelization in ORCA, NUMFREQ, NUMCALC 
  Giovanni Bistoni       : ED, misc. LED, open-shell LED, HFLD           
  Martin Brehm           : Molecular dynamics                            
  Dmytro Bykov           : pre 5.0 version of the SCF Hessian            
  Marcos Casanova-Páez   : Triplet and SCS-CIS(D). UHF-(DLPNO)-IP/EA/STEOM-CCSD. UHF-CVS-IP/STEOM-CCSD   
  Vijay G. Chilkuri      : MRCI spin determinant printing, contributions to CSF-ICE 
  Pauline Colinet        : FMM embedding                                 
  Dipayan Datta          : RHF DLPNO-CCSD density                        
  Achintya Kumar Dutta   : EOM-CC, STEOM-CC                              
  Nicolas Foglia         : Exact transition moments, OPA infrastructure, MCD improvements    
  Dmitry Ganyushin       : Spin-Orbit,Spin-Spin,Magnetic field MRCI      
  Miquel Garcia-Rates    : C-PCM and meta-GGA Hessian, CCSD/C-PCM, Gaussian charge scheme 
  Tiago L. C. Gouveia    : GS-ROHF, GS-ROCIS                             
  Yang Guo               : DLPNO-NEVPT2, F12-NEVPT2, CIM, IAO-localization        
  Andreas Hansen         : Spin unrestricted coupled pair/coupled cluster methods 
  Ingolf Harden          : AUTO-CI MPn and infrastructure                
  Benjamin Helmich-Paris : MC-RPA, TRAH-(SCF,CASSCF), AVAS, COSX integrals, SCF dyn. polar. 
  Lee Huntington         : MR-EOM, pCC                                   
  Robert Izsak           : Overlap fitted RIJCOSX, COSX-SCS-MP3, EOM     
  Riya Kayal             : Wick's Theorem for AUTO-CI, AUTO-CI UHF-CCSDT 
  Emily Kempfer          : AUTO-CI, RHF CISDT and CCSDT                  
  Christian Kollmar      : KDIIS, OOCD, Brueckner-CCSD(T), CCSD density, CASPT2, CASPT2-K, improved NEVPT2 
  Axel Koslowski         : Symmetry handling                             
  Simone Kossmann        : meta-GGA functionals, TD-DFT gradient, OOMP2, (MP2 Hessian; deprecated post 5.0) 
  Lucas Lang             : DCDCAS                                        
  Marvin Lechner         : AUTO-CI (C++ implementation), FIC-MRCC        
  Spencer Leger          : CASSCF response                               
  Dagmar Lenk            : GEPOL surface, SMD, ORCA-2-JSON               
  Dimitrios Liakos       : Extrapolation schemes; Compound Job, initial MDCI parallelization 
  Dimitrios Manganas     : Further ROCIS development; embedding schemes. LFT, Crystal Embedding 
  Dimitrios Pantazis     : SARC Basis sets                               
  Anastasios Papadopoulos: AUTO-CI, single reference methods and gradients 
  Taras Petrenko         : pre 6.0 DFT Hessian and TD-DFT gradient, (ASA, deprecated), ECA, 1-Electron XAS/XES, NRVS 
  Peter Pinski           : DLPNO-MP2, DLPNO-MP2 Gradient                 
  Christoph Reimann      : Effective Core Potentials                     
  Marius Retegan         : Local ZFS, SOC                                
  Christoph Riplinger    : Optimizer, TS searches, QM/MM, DLPNO-CCSD(T), (RO)-DLPNO pert. Triples 
  Michael Roemelt        : Original ROCIS implementation                 
  Masaaki Saitow         : Open-shell DLPNO-CCSD energy and density      
  Barbara Sandhoefer     : DKH picture change effects                    
  Kantharuban Sivalingam : CASSCF convergence/infrastructure, NEVPT2 and variants, FIC-MRCI 
  Bernardo de Souza      : ESD, SOC TD-DFT                               
  Georgi L. Stoychev     : AutoAux, RI-MP2 NMR, DLPNO-MP2 response, X2C  
  Van Anh Tran           : RI-MP2 g-tensors                              
  Willem Van den Heuvel  : Paramagnetic NMR                              
  Zikuan Wang            : NOTCH, Electric field optimization            
  Frank Wennmohs         : Technical directorship and infrastructure     
  Hang Xu                : AUTO-CI-Response properties                   
                                                                         
[FACCTs GmbH]                                                            
  Markus Bursch, Miquel Garcia-Rates, Christoph Riplinger, Bernardo de Souza, Georgi L. Stoychev 
                                                                 
  APM, Basis sets (HGBS, AHGBS, def-TZVP (Ac-Lr), def2-XVPD (La-Lu)), CI-OPT, improved COSX, DLPNO-Multilevel,           
  DOCKER, DRACO, updates on ESD, GOAT, IRC, LR-CPCM, MBIS, meta-GGA TD-DFT gradient, ML-optimized integration grids, 
  MM, NACMEs, nearIR, NEB, NEB-TS, NL-DFT gradient (VV10), 2- and 3-layer-ONIOM, interface openCOSMO-RS, QMMM,   
  Crystal-QMMM, SF, symmetry and pop. for TD-DFT, r2SCAN hybrids, SOLVATOR                                   
                                                                         
[Other institutions]                                                     
  V. Asgeirsson          : NEB                                           
  Christoph Bannwarth    : sTDA-DFT, sTD-DFT, PBEh-3c, B97-3c, D3        
  Sebastian Ehlert       : rSCAN, r2SCAN, r2SCAN-3c, D4, dhf basis sets  
  Marvin Friede          : D4 for Fr, Ra, Ac-Lr                          
  Lars Goerigk           : TD-DFT with DH, B97 family of functionals     
  Stefan Grimme          : VdW corrections, initial TS optimization, DFT functionals, gCP, sTDA/sTD-DF 
  Waldemar Hujo          : DFT-NL                                        
  H. Jonsson             : NEB                                           
  Holger Kruse           : gCP                                           
  Marcel Mueller         : wB97X-3c, vDZP basis set                      
  Hagen Neugebauer       : wr2SCAN                                       
  Tobias Risthaus        : range-separated hybrid DFT                    
  Lukas Wittmann         : regularized MP2, r2SCAN double-hybrids, wr2SCAN        
                                                                         
We gratefully acknowledge several colleagues who have allowed us to      
interface, adapt or use parts of their codes:                            
  Ed Valeev, F. Pavosevic, A. Kumar             : LibInt (2-el integral package), F12 methods 
  Garnet Chan, S. Sharma, J. Yang, R. Olivares  : DMRG                   
  Ulf Ekstrom                                   : XCFun DFT Library      
  Mihaly Kallay                                 : mrcc  (arbitrary order and MRCC methods)
  Frank Weinhold                                : gennbo (NPA and NBO analysis)           
  Simon Mueller                                 : openCOSMO-RS                            
  Christopher J. Cramer and Donald G. Truhlar   : smd solvation model                     
  S Lehtola, MJT Oliveira, MAL Marques          : LibXC Library                           
  Liviu Ungur et al                             : ANISO software                          


 Your calculation uses the libint2 library for the computation of 2-el integrals
 For citations please refer to: http://libint.valeyev.net

 Your ORCA version has been built with support for libXC version: 6.2.2
 For citations please refer to: https://libxc.gitlab.io

 This ORCA versions uses:
   CBLAS   interface :  Fast vector & matrix operations
   LAPACKE interface :  Fast linear algebra routines
   SCALAPACK package :  Parallel linear algebra routines
   Shared memory     :  Shared parallel matrices
   BLAS/LAPACK       :  OpenBLAS 0.3.27  USE64BITINT DYNAMIC_ARCH NO_AFFINITY SkylakeX SINGLE_THREADED
        Core in use  :  SkylakeX
   Copyright (c) 2011-2014, The OpenBLAS Project


NOTE: MaxCore=4000 MB was set to SCF,MP2,MDCI,CIPSI,MRCI and CIS
      => If you want to overwrite this, your respective input block should be placed after the MaxCore statement
Your calculation utilizes the atom-pairwise dispersion correction
with the Becke-Johnson damping scheme (D3BJ)


Warning: RI is on but no J-basis has been assigned. Assigning Def2/J (nothing to worry about!)
================================================================================

----- Orbital basis set information -----
Your calculation utilizes the basis: def2-SVP
   F. Weigend and R. Ahlrichs, Phys. Chem. Chem. Phys. 7, 3297 (2005).

----- AuxJ basis set information -----
Your calculation utilizes the auxiliary basis: def2/J
   F. Weigend, Phys. Chem. Chem. Phys. 8, 1057 (2006).

================================================================================
                                        WARNINGS
                       Please study these warnings very carefully!
================================================================================


WARNING: Geometry Optimization
  ===> : Switching off AutoStart
         For restart on a previous wavefunction, please use MOREAD

================================================================================
                                       INPUT FILE
================================================================================
NAME = p_toluidine_water_2_OPT.inp
|  1> ! B3LYP def2-SVP OPT TightSCF D3BJ
|  2> 
|  3> 
|  4> %maxcore 4000
|  5> 
|  6> %pal
|  7> nprocs 28
|  8> end
|  9> 
| 10> * xyz 0 1
| 11> N       -2.8267651389      0.0000667596     -0.0121257904                 
| 12> C        1.4057679943     -0.0000032260      0.0175086304                 
| 13> C       -1.4507458006      0.0000155208     -0.0033655174                 
| 14> C        0.6723994633     -1.1956143767      0.0151902999                 
| 15> C        0.6723954129      1.1956667623      0.0145350894                 
| 16> C       -0.7209483105     -1.2057399615      0.0043266457                 
| 17> C       -0.7209029216      1.2057992461      0.0036699537                 
| 18> C        2.9141225032      0.0001508770     -0.0074885975                 
| 19> H        1.2059720505     -2.1510908844      0.0240322825                 
| 20> H        1.2059709905      2.1511520344      0.0228575980                 
| 21> H       -1.2578769485     -2.1589322327      0.0063188786                 
| 22> H       -1.2578364488      2.1589919596      0.0051431281                 
| 23> H        3.3264416699      0.8876313551      0.4982386203                 
| 24> H        3.3263319709     -0.8925960313      0.4888968612                 
| 25> H        3.3043860606      0.0056316220     -1.0414278995                 
| 26> H       -3.3439225429      0.8656540008     -0.0171426953                 
| 27> H       -3.3439900042     -0.8654834251     -0.0166674877                 
| 28> O       -3.4251702618      0.1408579004      2.8541296017                 
| 29> H       -2.6550334934      0.1526687609      3.4386289700                 
| 30> H       -3.0301590041      0.1239273987      1.9718005733                 
| 31> *
| 32> 
| 33>                          ****END OF INPUT****
================================================================================

                       *****************************
                       * Geometry Optimization Run *
                       *****************************

Geometry optimization settings:
Update method            Update   .... BFGS
Choice of coordinates    CoordSys .... (2022) Redundant Internals
Initial Hessian          InHess   .... Almloef's Model
Max. no of cycles        MaxIter  .... 60

Convergence Tolerances:
Energy Change            TolE     ....  5.0000e-06 Eh
Max. Gradient            TolMAXG  ....  3.0000e-04 Eh/bohr
RMS Gradient             TolRMSG  ....  1.0000e-04 Eh/bohr
Max. Displacement        TolMAXD  ....  4.0000e-03 bohr
RMS Displacement         TolRMSD  ....  2.0000e-03 bohr
Strict Convergence                .... False

------------------------------------------------------------------------------
                        ORCA OPTIMIZATION COORDINATE SETUP
------------------------------------------------------------------------------

The optimization will be done in redundant internal coordinates (2022)
Making redundant internal coordinates   ...  (2022 redundants) done
Evaluating the initial hessian          ...  (Almloef) done
Evaluating the coordinates              ...  done
Calculating the B-matrix                .... done
Calculating the G-matrix                .... done
Diagonalizing the G-matrix              .... done
The first mode is                       ....   80
The number of degrees of freedom        ....   54

    -----------------------------------------------------------------
                    Redundant Internal Coordinates


    -----------------------------------------------------------------
         Definition                    Initial Value    Approx d2E/dq
    -----------------------------------------------------------------
      1. B(C   2,N   0)                  1.3760         0.589028   
      2. B(C   3,C   1)                  1.4026         0.596509   
      3. B(C   4,C   1)                  1.4027         0.596391   
      4. B(C   5,C   3)                  1.3934         0.616980   
      5. B(C   5,C   2)                  1.4094         0.581741   
      6. B(C   6,C   4)                  1.3934         0.617092   
      7. B(C   6,C   2)                  1.4095         0.581646   
      8. B(C   7,C   1)                  1.5086         0.404186   
      9. B(H   8,C   3)                  1.0944         0.354325   
     10. B(H   9,C   4)                  1.0944         0.354318   
     11. B(H  10,C   5)                  1.0940         0.354826   
     12. B(H  11,C   6)                  1.0940         0.354823   
     13. B(H  12,C   7)                  1.1015         0.345154   
     14. B(H  13,C   7)                  1.1015         0.345198   
     15. B(H  14,C   7)                  1.1052         0.340601   
     16. B(H  15,N   0)                  1.0083         0.435380   
     17. B(H  16,N   0)                  1.0083         0.435379   
     18. B(H  18,O  17)                  0.9669         0.506948   
     19. B(H  19,H  16)                  2.2431         0.000997   
     20. B(H  19,H  15)                  2.1458         0.001426   
     21. B(H  19,N   0)                  1.9982         0.011472   
     22. B(H  19,C   2)                  2.5320         0.001802   
     23. B(H  19,O  17)                  0.9669         0.507010   
     24. A(C   2,N   0,H  16)          120.8599         0.355930   
     25. A(C   2,N   0,H  15)          120.8599         0.355930   
     26. A(H  15,N   0,H  16)          118.2799         0.303855   
     27. A(H  15,N   0,H  19)           84.2332         0.183342   
     28. A(C   2,N   0,H  19)           95.4783         0.206208   
     29. A(H  16,N   0,H  19)           90.3133         0.183342   
     30. A(C   4,C   1,C   7)          121.5100         0.399478   
     31. A(C   3,C   1,C   4)          116.9522         0.428070   
     32. A(C   3,C   1,C   7)          121.5234         0.399491   
     33. A(C   6,C   2,H  19)          106.0954         0.167424   
     34. A(C   5,C   2,H  19)          111.1367         0.167427   
     35. A(N   0,C   2,H  19)           51.7717         0.167001   
     36. A(N   0,C   2,C   6)          121.1848         0.422426   
     37. A(C   5,C   2,C   6)          117.6266         0.424247   
     38. A(N   0,C   2,C   5)          121.1882         0.422438   
     39. A(C   1,C   3,C   5)          121.9404         0.430685   
     40. A(C   5,C   3,H   8)          118.7663         0.351655   
     41. A(C   1,C   3,H   8)          119.2932         0.349656   
     42. A(C   6,C   4,H   9)          118.7658         0.351664   
     43. A(C   1,C   4,C   6)          121.9398         0.430683   
     44. A(C   1,C   4,H   9)          119.2943         0.349644   
     45. A(C   2,C   5,H  10)          119.4229         0.348264   
     46. A(C   2,C   5,C   3)          120.7698         0.428751   
     47. A(C   3,C   5,H  10)          119.8067         0.351739   
     48. A(C   4,C   6,H  11)          119.8075         0.351749   
     49. A(C   2,C   6,H  11)          119.4216         0.348254   
     50. A(C   2,C   6,C   4)          120.7704         0.428753   
     51. A(H  13,C   7,H  14)          107.0660         0.286415   
     52. A(H  12,C   7,H  13)          107.8190         0.287009   
     53. A(C   1,C   7,H  13)          111.5075         0.326271   
     54. A(H  12,C   7,H  14)          107.0585         0.286409   
     55. A(C   1,C   7,H  12)          111.5144         0.326264   
     56. A(C   1,C   7,H  14)          111.6284         0.325552   
     57. A(N   0,H  15,H  19)           67.8930         0.136610   
     58. A(N   0,H  16,H  19)           62.9738         0.132910   
     59. A(H  18,O  17,H  19)          103.0888         0.319185   
     60. A(C   2,H  19,H  16)           51.2563         0.101831   
     61. A(C   2,H  19,H  15)           52.0538         0.102912   
     62. A(N   0,H  19,C   2)           32.7499         0.116568   
     63. A(C   2,H  19,O  17)          165.3679         0.153986   
     64. A(H  15,H  19,H  16)           46.3959         0.098730   
     65. A(N   0,H  19,H  16)           26.7128         0.108281   
     66. A(H  16,H  19,O  17)          139.4241         0.134451   
     67. A(N   0,H  19,H  15)           27.8738         0.109905   
     68. A(H  15,H  19,O  17)          141.2665         0.138279   
     69. A(N   0,H  19,O  17)          161.5746         0.186651   
     70. D(C   5,C   2,N   0,H  16)     -0.2274         0.032586   
     71. D(C   5,C   2,N   0,H  15)    179.9694         0.032586   
     72. D(C   6,C   2,N   0,H  19)    -86.3165         0.032586   
     73. D(C   5,C   2,N   0,H  19)     93.4253         0.032586   
     74. D(C   6,C   2,N   0,H  16)   -179.9691         0.032586   
     75. D(C   6,C   2,N   0,H  15)      0.2277         0.032586   
     76. D(H   8,C   3,C   1,C   7)      1.7559         0.024514   
     77. D(C   5,C   3,C   1,C   4)      0.2829         0.024514   
     78. D(H   8,C   3,C   1,C   4)   -179.6005         0.024514   
     79. D(C   5,C   3,C   1,C   7)   -178.3607         0.024514   
     80. D(H   9,C   4,C   1,C   3)    179.6002         0.024504   
     81. D(C   6,C   4,C   1,C   7)    178.3611         0.024504   
     82. D(H   9,C   4,C   1,C   7)     -1.7559         0.024504   
     83. D(C   6,C   4,C   1,C   3)     -0.2828         0.024504   
     84. D(C   3,C   5,C   2,N   0)   -179.9034         0.025256   
     85. D(H  10,C   5,C   3,C   1)   -179.7907         0.026325   
     86. D(C   2,C   5,C   3,C   1)     -0.0689         0.026325   
     87. D(H  10,C   5,C   3,H   8)      0.0933         0.026325   
     88. D(H  10,C   5,C   2,C   6)    179.5701         0.025256   
     89. D(C   2,C   5,C   3,H   8)    179.8151         0.026325   
     90. D(H  10,C   5,C   2,N   0)     -0.1805         0.025256   
     91. D(C   3,C   5,C   2,H  19)   -122.6884         0.025256   
     92. D(C   3,C   5,C   2,C   6)     -0.1528         0.025256   
     93. D(H  11,C   6,C   2,C   5)   -179.5701         0.025247   
     94. D(C   4,C   6,C   2,H  19)    125.2260         0.025247   
     95. D(C   4,C   6,C   2,C   5)      0.1529         0.025247   
     96. D(C   4,C   6,C   2,N   0)    179.9036         0.025247   
     97. D(H  11,C   6,C   2,N   0)      0.1806         0.025247   
     98. D(H  11,C   6,C   4,C   1)    179.7905         0.026336   
     99. D(C   2,C   6,C   4,H   9)   -179.8150         0.026336   
    100. D(C   2,C   6,C   4,C   1)      0.0686         0.026336   
    101. D(H  11,C   6,C   4,H   9)     -0.0931         0.026336   
    102. D(H  14,C   7,C   1,C   3)     89.6099         0.012113   
    103. D(H  13,C   7,C   1,C   4)    151.3205         0.012113   
    104. D(H  13,C   7,C   1,C   3)    -30.0977         0.012113   
    105. D(H  12,C   7,C   1,C   4)     30.7308         0.012113   
    106. D(H  12,C   7,C   1,C   3)   -150.6873         0.012113   
    107. D(H  19,H  15,N   0,H  16)     87.2435         0.243451   
    108. D(H  19,H  15,N   0,C   2)    -92.9483         0.243451   
    109. D(H  19,H  16,N   0,H  15)    -83.6180         0.243450   
    110. D(H  19,H  16,N   0,C   2)     96.5739         0.243450   
    111. D(N   0,H  19,O  17,H  18)    172.2304         0.392165   
    112. D(C   2,H  19,H  16,N   0)    -36.4556         0.001511   
    113. D(H  15,H  19,H  16,N   0)     34.6062         0.001511   
    114. D(C   2,H  19,H  15,N   0)     36.2138         0.001522   
    115. D(H  16,H  19,H  15,N   0)    -33.0971         0.001522   
    116. D(O  17,H  19,H  15,N   0)   -152.3719         0.001522   
    117. D(H  15,H  19,C   2,N   0)    -30.7029         0.001502   
    118. D(N   0,H  19,C   2,C   6)    117.3065         0.001502   
    119. D(N   0,H  19,C   2,C   5)   -113.7177         0.001502   
    120. D(O  17,H  19,C   2,C   6)    -71.6948         0.001502   
    121. D(O  17,H  19,C   2,C   5)     57.2810         0.001502   
    122. D(O  17,H  19,C   2,N   0)    170.9987         0.001502   
    123. D(H  15,H  19,C   2,C   5)   -144.4207         0.001502   
    124. D(H  16,H  19,N   0,H  15)    118.4013         0.001596   
    125. D(H  16,H  19,N   0,C   2)   -121.0527         0.001596   
    126. D(H  15,H  19,N   0,H  16)   -118.4013         0.001596   
    127. D(O  17,H  19,H  16,N   0)    157.5625         0.001511   
    128. D(H  15,H  19,N   0,C   2)    120.5460         0.001596   
    129. D(O  17,H  19,N   0,H  16)    -51.7639         0.001596   
    130. D(O  17,H  19,N   0,H  15)     66.6373         0.001596   
    131. D(H  15,H  19,O  17,H  18)   -144.4597         0.392165   
    132. D(O  17,H  19,N   0,C   2)   -172.8167         0.001596   
    133. D(C   2,H  19,O  17,H  18)      7.7629         0.392165   
    134. D(H  16,H  19,O  17,H  18)    139.3542         0.392165   
    -----------------------------------------------------------------

Number of atoms                         .... 20
Number of degrees of freedom            .... 134


         *************************************************************
         *                GEOMETRY OPTIMIZATION CYCLE   1            *
         *************************************************************
---------------------------------
CARTESIAN COORDINATES (ANGSTROEM)
---------------------------------
  N     -2.826765    0.000067   -0.012126
  C      1.405768   -0.000003    0.017509
  C     -1.450746    0.000016   -0.003366
  C      0.672399   -1.195614    0.015190
  C      0.672395    1.195667    0.014535
  C     -0.720948   -1.205740    0.004327
  C     -0.720903    1.205799    0.003670
  C      2.914123    0.000151   -0.007489
  H      1.205972   -2.151091    0.024032
  H      1.205971    2.151152    0.022858
  H     -1.257877   -2.158932    0.006319
  H     -1.257836    2.158992    0.005143
  H      3.326442    0.887631    0.498239
  H      3.326332   -0.892596    0.488897
  H      3.304386    0.005632   -1.041428
  H     -3.343923    0.865654   -0.017143
  H     -3.343990   -0.865483   -0.016667
  O     -3.425170    0.140858    2.854130
  H     -2.655033    0.152669    3.438629
  H     -3.030159    0.123927    1.971801

----------------------------
CARTESIAN COORDINATES (A.U.)
----------------------------
  NO LB      ZA    FRAG     MASS         X           Y           Z
   0 N     7.0000    0    14.007   -5.341812    0.000126   -0.022914
   1 C     6.0000    0    12.011    2.656517   -0.000006    0.033087
   2 C     6.0000    0    12.011   -2.741512    0.000029   -0.006360
   3 C     6.0000    0    12.011    1.270651   -2.259384    0.028706
   4 C     6.0000    0    12.011    1.270643    2.259483    0.027467
   5 C     6.0000    0    12.011   -1.362395   -2.278518    0.008176
   6 C     6.0000    0    12.011   -1.362309    2.278630    0.006935
   7 C     6.0000    0    12.011    5.506893    0.000285   -0.014151
   8 H     1.0000    0     1.008    2.278957   -4.064973    0.045414
   9 H     1.0000    0     1.008    2.278955    4.065088    0.043195
  10 H     1.0000    0     1.008   -2.377043   -4.079791    0.011941
  11 H     1.0000    0     1.008   -2.376966    4.079904    0.009719
  12 H     1.0000    0     1.008    6.286064    1.677380    0.941535
  13 H     1.0000    0     1.008    6.285856   -1.686762    0.923881
  14 H     1.0000    0     1.008    6.244385    0.010642   -1.968014
  15 H     1.0000    0     1.008   -6.319098    1.635849   -0.032395
  16 H     1.0000    0     1.008   -6.319225   -1.635527   -0.031497
  17 O     8.0000    0    15.999   -6.472634    0.266183    5.393523
  18 H     1.0000    0     1.008   -5.017286    0.288502    6.498067
  19 H     1.0000    0     1.008   -5.726171    0.234189    3.726163

--------------------------------
INTERNAL COORDINATES (ANGSTROEM)
--------------------------------
 N      0   0   0     0.000000000000     0.00000000     0.00000000
 C      1   0   0     4.232636876396     0.00000000     0.00000000
 C      1   2   0     1.376047224620     0.03641154     0.00000000
 C      2   1   3     1.402612134767    58.47679990   271.73178004
 C      2   1   3     1.402665642987    58.47583190    91.97030537
 C      4   2   1     1.393426914195   121.94038100     0.05484554
 C      5   2   1     1.393377539406   121.93977809   359.94533718
 C      2   1   3     1.508561636019   178.64938018     2.15523889
 H      4   2   1     1.094400860395   119.29318233   180.17140640
 H      5   2   1     1.094405896530   119.29429446   179.82834693
 H      6   4   2     1.094016378841   119.80672948   180.20926586
 H      7   5   2     1.094018341685   119.80750810   179.79051835
 H      8   2   4     1.101539247172   111.51440759   209.31269437
 H      8   2   4     1.101504521620   111.50747428   329.90229863
 H      8   2   4     1.105154361626   111.62836783    89.60990356
 H      1   2   4     1.008324462648   120.85881606   179.95744071
 H      1   2   4     1.008325002434   120.86114820   359.80411946
 O      1   2   4     2.931438351592   101.37816105    92.67293990
 H     18   1   2     0.966896917986   115.40806414   358.91362661
 H     18   1   2     0.966863511544    12.44156369     7.29601381

---------------------------
INTERNAL COORDINATES (A.U.)
---------------------------
 N      0   0   0     0.000000000000     0.00000000     0.00000000
 C      1   0   0     7.998524520725     0.00000000     0.00000000
 C      1   2   0     2.600352401874     0.03641154     0.00000000
 C      2   1   3     2.650552806824    58.47679990   271.73178004
 C      2   1   3     2.650653922706    58.47583190    91.97030537
 C      4   2   1     2.633195255464   121.94038100     0.05484554
 C      5   2   1     2.633101950635   121.93977809   359.94533718
 C      2   1   3     2.850768348217   178.64938018     2.15523889
 H      4   2   1     2.068117906875   119.29318233   180.17140640
 H      5   2   1     2.068127423791   119.29429446   179.82834693
 H      6   4   2     2.067391342033   119.80672948   180.20926586
 H      7   5   2     2.067395051272   119.80750810   179.79051835
 H      8   2   4     2.081607502921   111.51440759   209.31269437
 H      8   2   4     2.081541881138   111.50747428   329.90229863
 H      8   2   4     2.088439079181   111.62836783    89.60990356
 H      1   2   4     1.905457088539   120.85881606   179.95744071
 H      1   2   4     1.905458108585   120.86114820   359.80411946
 O      1   2   4     5.539615662982   101.37816105    92.67293990
 H     18   1   2     1.827170374726   115.40806414   358.91362661
 H     18   1   2     1.827107245699    12.44156369     7.29601381

---------------------
BASIS SET INFORMATION
---------------------
There are 4 groups of distinct atoms

 Group   1 Type N   : 7s4p1d contracted to 3s2p1d pattern {511/31/1}
 Group   2 Type C   : 7s4p1d contracted to 3s2p1d pattern {511/31/1}
 Group   3 Type H   : 4s1p contracted to 2s1p pattern {31/1}
 Group   4 Type O   : 7s4p1d contracted to 3s2p1d pattern {511/31/1}

Atom   0N    basis set group =>   1
Atom   1C    basis set group =>   2
Atom   2C    basis set group =>   2
Atom   3C    basis set group =>   2
Atom   4C    basis set group =>   2
Atom   5C    basis set group =>   2
Atom   6C    basis set group =>   2
Atom   7C    basis set group =>   2
Atom   8H    basis set group =>   3
Atom   9H    basis set group =>   3
Atom  10H    basis set group =>   3
Atom  11H    basis set group =>   3
Atom  12H    basis set group =>   3
Atom  13H    basis set group =>   3
Atom  14H    basis set group =>   3
Atom  15H    basis set group =>   3
Atom  16H    basis set group =>   3
Atom  17O    basis set group =>   4
Atom  18H    basis set group =>   3
Atom  19H    basis set group =>   3
---------------------------------
AUXILIARY/J BASIS SET INFORMATION
---------------------------------
There are 4 groups of distinct atoms

 Group   1 Type N   : 12s5p4d2f1g contracted to 6s4p3d1f1g pattern {711111/2111/211/2/1}
 Group   2 Type C   : 12s5p4d2f1g contracted to 6s4p3d1f1g pattern {711111/2111/211/2/1}
 Group   3 Type H   : 5s2p1d contracted to 3s1p1d pattern {311/2/1}
 Group   4 Type O   : 12s5p4d2f1g contracted to 6s4p3d1f1g pattern {711111/2111/211/2/1}

Atom   0N    basis set group =>   1
Atom   1C    basis set group =>   2
Atom   2C    basis set group =>   2
Atom   3C    basis set group =>   2
Atom   4C    basis set group =>   2
Atom   5C    basis set group =>   2
Atom   6C    basis set group =>   2
Atom   7C    basis set group =>   2
Atom   8H    basis set group =>   3
Atom   9H    basis set group =>   3
Atom  10H    basis set group =>   3
Atom  11H    basis set group =>   3
Atom  12H    basis set group =>   3
Atom  13H    basis set group =>   3
Atom  14H    basis set group =>   3
Atom  15H    basis set group =>   3
Atom  16H    basis set group =>   3
Atom  17O    basis set group =>   4
Atom  18H    basis set group =>   3
Atom  19H    basis set group =>   3
--------------------------------------------------------------------------
By default, for Open MPI 4.0 and later, infiniband ports on a device
are not used by default.  The intent is to use UCX for these devices.
You can override this policy by setting the btl_openib_allow_ib MCA parameter
to true.

  Local host:              psid02
  Local adapter:           mlx5_0
  Local port:              1

--------------------------------------------------------------------------
--------------------------------------------------------------------------
WARNING: There was an error initializing an OpenFabrics device.

  Local host:   psid02
  Local device: mlx5_0
--------------------------------------------------------------------------
[psid02:199412] [[27340,0],0] ORTE_ERROR_LOG: Data unpack would read past end of buffer in file util/show_help.c at line 501


           ************************************************************
           *        Program running with 28 parallel MPI-processes    *
           *              working on a common directory               *
           ************************************************************
------------------------------------------------------------------------------
                             ORCA STARTUP CALCULATIONS
                           -- RI-GTO INTEGRALS CHOSEN --
------------------------------------------------------------------------------
------------------------------------------------------------------------------
                   ___                                                        
                  /   \      - P O W E R E D   B Y -                         
                 /     \                                                     
                 |  |  |   _    _      __       _____    __    __             
                 |  |  |  | |  | |    /  \     |  _  \  |  |  /  |          
                  \  \/   | |  | |   /    \    | | | |  |  | /  /          
                 / \  \   | |__| |  /  /\  \   | |_| |  |  |/  /          
                |  |  |   |  __  | /  /__\  \  |    /   |      \           
                |  |  |   | |  | | |   __   |  |    \   |  |\   \          
                \     /   | |  | | |  |  |  |  | |\  \  |  | \   \       
                 \___/    |_|  |_| |__|  |__|  |_| \__\ |__|  \__/        
                                                                              
                      - O R C A' S   B I G   F R I E N D -                    
                                      &                                       
                       - I N T E G R A L  F E E D E R -                       
                                                                              
 v1 FN, 2020, v2 2021, v3 2022-2024                                           
------------------------------------------------------------------------------


----------------------
SHARK INTEGRAL PACKAGE
----------------------

Number of atoms                             ...     20
Number of basis functions                   ...    181
Number of shells                            ...     87
Maximum angular momentum                    ...      2
Integral batch strategy                     ... SHARK/LIBINT Hybrid
RI-J (if used) integral strategy            ... SPLIT-RIJ (Revised 2003 algorithm where possible)
Printlevel                                  ...      1
Contraction scheme used                     ... SEGMENTED contraction
Prescreening option                         ... SCHWARTZ
   Thresh                                   ... 2.500e-11
   Tcut                                     ... 2.500e-12
   Tpresel                                  ... 2.500e-12 
Coulomb Range Separation                    ... NOT USED
Exchange Range Separation                   ... NOT USED
Multipole approximations                    ... NOT USED
Finite Nucleus Model                        ... NOT USED
CABS basis                                  ... NOT available
Auxiliary Coulomb fitting basis             ... AVAILABLE
   # of basis functions in Aux-J            ...    562
   # of shells in Aux-J                     ...    190
   Maximum angular momentum in Aux-J        ...      4
Auxiliary J/K fitting basis                 ... NOT available
Auxiliary Correlation fitting basis         ... NOT available
Auxiliary 'external' fitting basis          ... NOT available

Checking pre-screening integrals            ... done (  0.0 sec) Dimension = 87
Check shell pair data                       ... done (  0.0 sec)
Shell pair information
Shell pair cut-off parameter TPreSel        ...   2.5e-12
Total number of shell pairs                 ...      3828
Shell pairs after pre-screening             ...      3435
Total number of primitive shell pairs       ...     13516
Primitive shell pairs kept                  ...      8707
          la=0 lb=0:   1115 shell pairs
          la=1 lb=0:   1276 shell pairs
          la=1 lb=1:    385 shell pairs
          la=2 lb=0:    392 shell pairs
          la=2 lb=1:    227 shell pairs
          la=2 lb=2:     40 shell pairs

Calculating one electron integrals          ... done (  0.0 sec)
Calculating RI/J V-Matrix + Cholesky decomp.... done (  0.0 sec)
Calculating Nuclear repulsion               ... done (  0.0 sec) ENN=    422.209902743769 Eh

Diagonalization of the overlap matrix:
Smallest eigenvalue                        ... 2.663e-04
Time for diagonalization                   ...    0.003 sec
Threshold for overlap eigenvalues          ... 1.000e-07
Number of eigenvalues below threshold      ... 0
Time for construction of square roots      ...    0.002 sec
Total time needed                          ...    0.010 sec

-------------------
DFT GRID GENERATION
-------------------

General Integration Accuracy     IntAcc      ... 4.388
Radial Grid Type                 RadialGrid  ... OptM3 with GC (2021)
Angular Grid (max. ang.)         AngularGrid ... 4 (Lebedev-302)
Angular grid pruning method      GridPruning ... 4 (adaptive)
Weight generation scheme         WeightScheme... mBecke (2022)
Basis function cutoff            BFCut       ... 1.0000e-11
Integration weight cutoff        WCut        ... 1.0000e-14
Partially contracted basis set               ... off
Rotationally invariant grid construction     ... off
Angular grids for H and He will be reduced by one unit

Total number of grid points                  ...    89560
Total number of batches                      ...     1407
Average number of points per batch           ...       63
Average number of grid points per atom       ...     4478

--------------------
COSX GRID GENERATION
--------------------

GRIDX 1
-------
General Integration Accuracy     IntAcc      ... 3.816
Radial Grid Type                 RadialGrid  ... OptM3 with GC (2021)
Angular Grid (max. ang.)         AngularGrid ... 1 (Lebedev-50)
Angular grid pruning method      GridPruning ... 4 (adaptive)
Weight generation scheme         WeightScheme... mBecke (2022)
Basis function cutoff            BFCut       ... 1.0000e-11
Integration weight cutoff        WCut        ... 1.0000e-14
Partially contracted basis set               ... on
Rotationally invariant grid construction     ... off
Angular grids for H and He will be reduced by one unit

Total number of grid points                  ...    11500
Total number of batches                      ...      100
Average number of points per batch           ...      115
Average number of grid points per atom       ...      575
UseSFitting                                  ... on

GRIDX 2
-------
General Integration Accuracy     IntAcc      ... 4.020
Radial Grid Type                 RadialGrid  ... OptM3 with GC (2021)
Angular Grid (max. ang.)         AngularGrid ... 2 (Lebedev-110)
Angular grid pruning method      GridPruning ... 4 (adaptive)
Weight generation scheme         WeightScheme... mBecke (2022)
Basis function cutoff            BFCut       ... 1.0000e-11
Integration weight cutoff        WCut        ... 1.0000e-14
Partially contracted basis set               ... on
Rotationally invariant grid construction     ... off
Angular grids for H and He will be reduced by one unit

Total number of grid points                  ...    24474
Total number of batches                      ...      202
Average number of points per batch           ...      121
Average number of grid points per atom       ...     1224
UseSFitting                                  ... on

GRIDX 3
-------
General Integration Accuracy     IntAcc      ... 4.338
Radial Grid Type                 RadialGrid  ... OptM3 with GC (2021)
Angular Grid (max. ang.)         AngularGrid ... 3 (Lebedev-194)
Angular grid pruning method      GridPruning ... 4 (adaptive)
Weight generation scheme         WeightScheme... mBecke (2022)
Basis function cutoff            BFCut       ... 1.0000e-11
Integration weight cutoff        WCut        ... 1.0000e-14
Partially contracted basis set               ... on
Rotationally invariant grid construction     ... off
Angular grids for H and He will be reduced by one unit

Total number of grid points                  ...    53643
Total number of batches                      ...      428
Average number of points per batch           ...      125
Average number of grid points per atom       ...     2682
UseSFitting                                  ... on
Initializing property integral containers    ... done (  0.0 sec)

SHARK setup successfully completed in   0.9 seconds

Maximum memory used throughout the entire STARTUP-calculation: 22.2 MB
[psid02:199412] 26 more processes have sent help message help-mpi-btl-openib.txt / ib port not selected
[psid02:199412] Set MCA parameter "orte_base_help_aggregate" to 0 to see all help / error messages
[psid02:199412] 27 more processes have sent help message help-mpi-btl-openib.txt / error in device init
--------------------------------------------------------------------------
By default, for Open MPI 4.0 and later, infiniband ports on a device
are not used by default.  The intent is to use UCX for these devices.
You can override this policy by setting the btl_openib_allow_ib MCA parameter
to true.

  Local host:              psid02
  Local adapter:           mlx5_0
  Local port:              1

--------------------------------------------------------------------------
--------------------------------------------------------------------------
WARNING: There was an error initializing an OpenFabrics device.

  Local host:   psid02
  Local device: mlx5_0
--------------------------------------------------------------------------


           ************************************************************
           *        Program running with 28 parallel MPI-processes    *
           *              working on a common directory               *
           ************************************************************
-------------------------------------------------------------------------------
                                 ORCA GUESS
                   Start orbitals & Density for SCF / CASSCF
-------------------------------------------------------------------------------

------------
SCF SETTINGS
------------
Hamiltonian:
 Density Functional     Method          .... DFT(GTOs)
 Exchange Functional    Exchange        .... B88
   X-Alpha parameter    XAlpha          ....  0.666667
   Becke's b parameter  XBeta           ....  0.004200
 Correlation Functional Correlation     .... LYP
 LDA part of GGA corr.  LDAOpt          .... VWN-5
 Gradients option       PostSCFGGA      .... off
 Hybrid DFT is turned on
   Fraction HF Exchange ScalHFX         ....  0.200000
   Scaling of DF-GGA-X  ScalDFX         ....  0.720000
   Scaling of DF-GGA-C  ScalDFC         ....  0.810000
   Scaling of DF-LDA-C  ScalLDAC        ....  1.000000
   Perturbative correction              ....  0.000000
   NL short-range parameter             ....  4.800000
 RI-approximation to the Coulomb term is turned on
   Number of AuxJ basis functions       .... 562
   RIJ-COSX (HFX calculated with COS-X)).... on


General Settings:
 Integral files         IntName         .... p_toluidine_water_2_OPT
 Hartree-Fock type      HFTyp           .... RHF
 Total Charge           Charge          ....    0
 Multiplicity           Mult            ....    1
 Number of Electrons    NEL             ....   68
 Basis Dimension        Dim             ....  181
 Nuclear Repulsion      ENuc            ....    422.2099027438 Eh

Convergence Acceleration:
 AO-DIIS                CNVDIIS         .... on
   Start iteration      DIISMaxIt       ....    12
   Startup error        DIISStart       ....  0.200000
   # of expansion vecs  DIISMaxEq       ....     5
   Bias factor          DIISBfac        ....   1.050
   Max. coefficient     DIISMaxC        ....  10.000
 MO-DIIS                CNVKDIIS        .... off
 Trust-Rad. Augm. Hess. CNVTRAH         .... auto
   Auto Start mean grad. ratio tolernc. ....  1.125000
   Auto Start start iteration           ....    50
   Auto Start num. interpolation iter.  ....    10
   Max. Number of Micro iterations      ....    24
   Max. Number of Macro iterations      .... Maxiter - #DIIS iter
   Number of Davidson start vectors     ....     2
   Converg. threshold    (grad. norm)   ....   1.000e-05
   Grad. Scal. Fac. for Micro threshold ....   0.100
   Minimum threshold for Micro iter.    ....   1.000e-02
   NR start threshold (gradient norm)   ....   1.000e-04
   Initial trust radius                 ....   0.400
   Minimum AH scaling param. (alpha)    ....   1.000
   Maximum AH scaling param. (alpha)    .... 1000.000
   Quad. conv. algorithm                .... NR
   White noise on init. David. guess    .... on
   Maximum white noise                  ....   0.010
   Pseudo random numbers                .... off
   Inactive MOs                         .... canonical
   Orbital update algorithm             .... Taylor
   Preconditioner                       .... Diag
   Full preconditioner red. dimension   ....   250
 SOSCF                  CNVSOSCF        .... on
   Start iteration      SOSCFMaxIt      ....   150
   Startup grad/error   SOSCFStart      ....  0.003300
   Hessian update       SOSCFHessUp     .... L-BFGS
 Level Shifting         CNVShift        .... on
   Level shift para.    LevelShift      ....    0.2500
   Turn off err/grad.   ShiftErr        ....    0.0010
 Zerner damping         CNVZerner       .... off
 Static damping         CNVDamp         .... on
   Fraction old density DampFac         ....    0.7000
   Max. Damping (<1)    DampMax         ....    0.9800
   Min. Damping (>=0)   DampMin         ....    0.0000
   Turn off err/grad.   DampErr         ....    0.1000

SCF Procedure:
 Maximum # iterations   MaxIter         ....   125
 SCF integral mode      SCFMode         .... Direct
   Integral package                     .... SHARK and LIBINT hybrid scheme
 Reset frequency        DirectResetFreq ....    20
 Integral Threshold     Thresh          ....  2.500e-11 Eh
 Primitive CutOff       TCut            ....  2.500e-12 Eh

Convergence Tolerance:
 Convergence Check Mode ConvCheckMode   .... Total+1el-Energy
 Convergence forced     ConvForced      .... 0
 Energy Change          TolE            ....  1.000e-08 Eh
 1-El. energy change                    ....  1.000e-05 Eh
 Orbital Gradient       TolG            ....  1.000e-05
 Orbital Rotation angle TolX            ....  1.000e-05
 DIIS Error             TolErr          ....  5.000e-07

------------------------------
INITIAL GUESS: MODEL POTENTIAL
------------------------------
Loading Hartree-Fock densities                     ... done
Calculating cut-offs                               ... done
Initializing the effective Hamiltonian             ... done
Setting up the integral package (SHARK)            ... done
Starting the Coulomb interaction                   ... done (   0.0 sec)
Making the grid                                    ... done (   0.1 sec)
Mapping shells                                     ... done
Starting the XC term evaluation                    ... done (   0.0 sec)
  promolecular density results
     # of electrons  =     67.997432950
     EX              =    -54.023009063
     EC              =     -2.256674862
     EX+EC           =    -56.279683925
Transforming the Hamiltonian                       ... done (   0.0 sec)
Diagonalizing the Hamiltonian                      ... done (   0.0 sec)
Back transforming the eigenvectors                 ... done (   0.0 sec)
Now organizing SCF variables                       ... done
                      ------------------
                      INITIAL GUESS DONE (   0.2 sec)
                      ------------------
             **** ENERGY FILE WAS UPDATED (p_toluidine_water_2_OPT.en.tmp) ****
Finished Guess after   0.9 sec
Maximum memory used throughout the entire GUESS-calculation: 12.8 MB
[psid02:199513] 27 more processes have sent help message help-mpi-btl-openib.txt / ib port not selected
[psid02:199513] Set MCA parameter "orte_base_help_aggregate" to 0 to see all help / error messages
[psid02:199513] 27 more processes have sent help message help-mpi-btl-openib.txt / error in device init
--------------------------------------------------------------------------
By default, for Open MPI 4.0 and later, infiniband ports on a device
are not used by default.  The intent is to use UCX for these devices.
You can override this policy by setting the btl_openib_allow_ib MCA parameter
to true.

  Local host:              psid02
  Local adapter:           mlx5_0
  Local port:              1

--------------------------------------------------------------------------
--------------------------------------------------------------------------
WARNING: There was an error initializing an OpenFabrics device.

  Local host:   psid02
  Local device: mlx5_0
--------------------------------------------------------------------------


           ************************************************************
           *        Program running with 28 parallel MPI-processes    *
           *              working on a common directory               *
           ************************************************************

-------------------------------------------------------------------------------------------
                                      ORCA LEAN-SCF
                              memory conserving SCF solver
-------------------------------------------------------------------------------------------

----------------------------------------D-I-I-S--------------------------------------------
Iteration    Energy (Eh)           Delta-E    RMSDP     MaxDP     DIISErr   Damp  Time(sec)
-------------------------------------------------------------------------------------------
               ***  Starting incremental Fock matrix formation  ***
    1    -402.4871435534065540     0.00e+00  3.96e-03  9.04e-02  3.09e-01  0.700   0.4
    2    -402.6341310386852683    -1.47e-01  2.68e-03  5.01e-02  1.32e-01  0.700   0.3
                               ***Turning on AO-DIIS***
    3    -402.6935413524912519    -5.94e-02  1.12e-03  1.67e-02  4.22e-02  0.700   0.3
    4    -402.7282048975170028    -3.47e-02  2.03e-03  3.55e-02  2.24e-02  0.000   0.3
    5    -402.8036016783742070    -7.54e-02  3.13e-04  5.98e-03  5.75e-03  0.000   0.3
                              *** Initializing SOSCF ***
---------------------------------------S-O-S-C-F--------------------------------------
Iteration    Energy (Eh)           Delta-E    RMSDP     MaxDP     MaxGrad    Time(sec)
--------------------------------------------------------------------------------------
    6    -402.8039853082275386    -3.84e-04  1.26e-04  3.10e-03  3.03e-03     0.3
               *** Restarting incremental Fock matrix formation ***
    7    -402.8039078183909396     7.75e-05  7.31e-05  1.12e-03  2.68e-04     0.4
    8    -402.8039071629436876     6.55e-07  2.92e-05  6.98e-04  4.84e-04     0.3
    9    -402.8039107594148618    -3.60e-06  1.98e-05  3.72e-04  1.19e-04     0.3
   10    -402.8039106664407427     9.30e-08  9.70e-06  1.77e-04  9.02e-05     0.3
   11    -402.8039110258536084    -3.59e-07  1.61e-06  5.01e-05  9.00e-06     0.3
   12    -402.8039110244850463     1.37e-09  8.18e-07  3.14e-05  1.08e-05     0.3
                 **** Energy Check signals convergence ****

               *****************************************************
               *                     SUCCESS                       *
               *           SCF CONVERGED AFTER  12 CYCLES          *
               *****************************************************

Recomputing exchange energy using gridx3       ... done (    0.307 sec)
Old exchange energy                            :    -10.996308596 Eh
New exchange energy                            :    -10.996292865 Eh
Exchange energy change after final integration :      0.000015731 Eh
Total energy after final integration           :   -402.803895293 Eh
             **** ENERGY FILE WAS UPDATED (p_toluidine_water_2_OPT.en.tmp) ****

----------------
TOTAL SCF ENERGY
----------------

Total Energy       :       -402.80389529345297 Eh          -10960.85123 eV

Components:
Nuclear Repulsion  :        422.20990274376891 Eh           11488.91554 eV
Electronic Energy  :       -825.01381376825395 Eh          -22449.76720 eV
One Electron Energy:      -1382.12137692995134 Eh          -37609.43469 eV
Two Electron Energy:        557.10756316169739 Eh           15159.66750 eV

Virial components:
Potential Energy   :       -801.54484924693998 Eh          -21811.14421 eV
Kinetic Energy     :        398.74095395348701 Eh           10850.29298 eV
Virial Ratio       :          2.01018942574040

DFT components:
N(Alpha)           :       33.999998775949 electrons
N(Beta)            :       33.999998775949 electrons
N(Total)           :       67.999997551898 electrons
E(X)               :      -43.660906632581 Eh       
E(C)               :       -2.673929835484 Eh       
E(XC)              :      -46.334836468064 Eh       

---------------
SCF CONVERGENCE
---------------

  Last Energy change         ...   -1.3686e-09  Tolerance :   1.0000e-08
  Last MAX-Density change    ...    3.1415e-05  Tolerance :   1.0000e-07
  Last RMS-Density change    ...    8.1768e-07  Tolerance :   5.0000e-09
  Last DIIS Error            ...    3.0305e-03  Tolerance :   5.0000e-07
  Last Orbital Gradient      ...    1.0845e-05  Tolerance :   1.0000e-05
  Last Orbital Rotation      ...    1.2050e-05  Tolerance :   1.0000e-05


----------------
ORBITAL ENERGIES
----------------

  NO   OCC          E(Eh)            E(eV) 
   0   2.0000     -19.092983      -519.5465 
   1   2.0000     -14.345863      -390.3708 
   2   2.0000     -10.230248      -278.3792 
   3   2.0000     -10.183203      -277.0991 
   4   2.0000     -10.183147      -277.0975 
   5   2.0000     -10.181690      -277.0579 
   6   2.0000     -10.181583      -277.0550 
   7   2.0000     -10.181015      -277.0395 
   8   2.0000     -10.180870      -277.0356 
   9   2.0000      -0.956410       -26.0252 
  10   2.0000      -0.918953       -25.0060 
  11   2.0000      -0.831884       -22.6367 
  12   2.0000      -0.746886       -20.3238 
  13   2.0000      -0.733013       -19.9463 
  14   2.0000      -0.667357       -18.1597 
  15   2.0000      -0.610122       -16.6023 
  16   2.0000      -0.581622       -15.8267 
  17   2.0000      -0.526848       -14.3363 
  18   2.0000      -0.526283       -14.3209 
  19   2.0000      -0.491235       -13.3672 
  20   2.0000      -0.459442       -12.5021 
  21   2.0000      -0.444679       -12.1003 
  22   2.0000      -0.425966       -11.5911 
  23   2.0000      -0.414844       -11.2885 
  24   2.0000      -0.412640       -11.2285 
  25   2.0000      -0.385614       -10.4931 
  26   2.0000      -0.377559       -10.2739 
  27   2.0000      -0.354381        -9.6432 
  28   2.0000      -0.344888        -9.3849 
  29   2.0000      -0.335475        -9.1287 
  30   2.0000      -0.305006        -8.2996 
  31   2.0000      -0.269903        -7.3444 
  32   2.0000      -0.251107        -6.8330 
  33   2.0000      -0.201719        -5.4891 
  34   0.0000      -0.004852        -0.1320 
  35   0.0000       0.012984         0.3533 
  36   0.0000       0.046722         1.2714 
  37   0.0000       0.069249         1.8844 
  38   0.0000       0.081680         2.2226 
  39   0.0000       0.085301         2.3211 
  40   0.0000       0.092790         2.5249 
  41   0.0000       0.116842         3.1794 
  42   0.0000       0.126730         3.4485 
  43   0.0000       0.145668         3.9638 
  44   0.0000       0.150638         4.0991 
*Only the first 10 virtual orbitals were printed.

                    ********************************
                    * MULLIKEN POPULATION ANALYSIS *
                    ********************************

-----------------------
MULLIKEN ATOMIC CHARGES
-----------------------
   0 N :   -0.092140
   1 C :   -0.038463
   2 C :    0.060971
   3 C :   -0.016206
   4 C :   -0.016090
   5 C :   -0.020366
   6 C :   -0.022357
   7 C :    0.081078
   8 H :   -0.035505
   9 H :   -0.035466
  10 H :   -0.046430
  11 H :   -0.046290
  12 H :    0.008782
  13 H :    0.008584
  14 H :    0.025356
  15 H :    0.121110
  16 H :    0.120332
  17 O :   -0.314126
  18 H :    0.146480
  19 H :    0.110746
Sum of atomic charges:   -0.0000000

--------------------------------
MULLIKEN REDUCED ORBITAL CHARGES
--------------------------------
  0 N s       :     3.302219  s :     3.302219
      pz      :     1.737848  p :     3.774662
      px      :     1.043092
      py      :     0.993722
      dz2     :     0.001862  d :     0.015259
      dxz     :     0.002687
      dyz     :     0.000036
      dx2y2   :     0.004268
      dxy     :     0.006406

  1 C s       :     3.052326  s :     3.052326
      pz      :     1.020354  p :     2.943777
      px      :     0.954055
      py      :     0.969368
      dz2     :     0.002996  d :     0.042360
      dxz     :     0.006204
      dyz     :     0.005872
      dx2y2   :     0.013138
      dxy     :     0.014149

  2 C s       :     2.982232  s :     2.982232
      pz      :     0.966384  p :     2.895030
      px      :     0.879937
      py      :     1.048709
      dz2     :     0.004305  d :     0.061767
      dxz     :     0.016431
      dyz     :     0.006647
      dx2y2   :     0.019444
      dxy     :     0.014940

  3 C s       :     3.221950  s :     3.221950
      pz      :     0.987134  p :     2.758849
      px      :     0.898129
      py      :     0.873586
      dz2     :     0.002567  d :     0.035407
      dxz     :     0.006528
      dyz     :     0.003359
      dx2y2   :     0.011022
      dxy     :     0.011931

  4 C s       :     3.222102  s :     3.222102
      pz      :     0.986905  p :     2.758584
      px      :     0.898148
      py      :     0.873531
      dz2     :     0.002567  d :     0.035403
      dxz     :     0.006529
      dyz     :     0.003358
      dx2y2   :     0.011022
      dxy     :     0.011927

  5 C s       :     3.223695  s :     3.223695
      pz      :     1.068155  p :     2.764020
      px      :     0.873415
      py      :     0.822450
      dz2     :     0.002622  d :     0.032651
      dxz     :     0.005315
      dyz     :     0.002984
      dx2y2   :     0.009256
      dxy     :     0.012474

  6 C s       :     3.224481  s :     3.224481
      pz      :     1.069913  p :     2.765224
      px      :     0.873103
      py      :     0.822208
      dz2     :     0.002620  d :     0.032652
      dxz     :     0.005318
      dyz     :     0.002984
      dx2y2   :     0.009250
      dxy     :     0.012480

  7 C s       :     2.935069  s :     2.935069
      pz      :     1.004647  p :     2.955253
      px      :     0.963806
      py      :     0.986800
      dz2     :     0.005653  d :     0.028600
      dxz     :     0.006337
      dyz     :     0.004377
      dx2y2   :     0.006977
      dxy     :     0.005255

  8 H s       :     1.012760  s :     1.012760
      pz      :     0.004730  p :     0.022744
      px      :     0.006111
      py      :     0.011903

  9 H s       :     1.012721  s :     1.012721
      pz      :     0.004732  p :     0.022745
      px      :     0.006111
      py      :     0.011902

 10 H s       :     1.023444  s :     1.023444
      pz      :     0.005315  p :     0.022986
      px      :     0.005769
      py      :     0.011902

 11 H s       :     1.023316  s :     1.023316
      pz      :     0.005302  p :     0.022975
      px      :     0.005766
      py      :     0.011907

 12 H s       :     0.968077  s :     0.968077
      pz      :     0.007120  p :     0.023141
      px      :     0.005320
      py      :     0.010701

 13 H s       :     0.968279  s :     0.968279
      pz      :     0.007048  p :     0.023136
      px      :     0.005317
      py      :     0.010771

 14 H s       :     0.951224  s :     0.951224
      pz      :     0.012815  p :     0.023419
      px      :     0.005283
      py      :     0.005322

 15 H s       :     0.833416  s :     0.833416
      pz      :     0.013690  p :     0.045474
      px      :     0.011727
      py      :     0.020057

 16 H s       :     0.834353  s :     0.834353
      pz      :     0.013545  p :     0.045316
      px      :     0.011704
      py      :     0.020067

 17 O s       :     3.665901  s :     3.665901
      pz      :     1.200821  p :     4.637664
      px      :     1.481642
      py      :     1.955201
      dz2     :     0.001200  d :     0.010560
      dxz     :     0.005651
      dyz     :     0.000073
      dx2y2   :     0.002566
      dxy     :     0.001071

 18 H s       :     0.783623  s :     0.783623
      pz      :     0.023974  p :     0.069897
      px      :     0.026517
      py      :     0.019406

 19 H s       :     0.815337  s :     0.815337
      pz      :     0.035937  p :     0.073917
      px      :     0.018649
      py      :     0.019331



                     *******************************
                     * LOEWDIN POPULATION ANALYSIS *
                     *******************************

----------------------
LOEWDIN ATOMIC CHARGES
----------------------
   0 N :   -0.003001
   1 C :   -0.056817
   2 C :    0.010600
   3 C :   -0.018580
   4 C :   -0.018556
   5 C :   -0.067829
   6 C :   -0.069048
   7 C :   -0.046078
   8 H :    0.023738
   9 H :    0.023744
  10 H :    0.020664
  11 H :    0.020579
  12 H :    0.027311
  13 H :    0.027264
  14 H :    0.032121
  15 H :    0.074839
  16 H :    0.075573
  17 O :   -0.165919
  18 H :    0.073127
  19 H :    0.036267

-------------------------------
LOEWDIN REDUCED ORBITAL CHARGES
-------------------------------
  0 N s       :     3.019208  s :     3.019208
      pz      :     1.656722  p :     3.942298
      px      :     1.139704
      py      :     1.145872
      dz2     :     0.003050  d :     0.041496
      dxz     :     0.005237
      dyz     :     0.000042
      dx2y2   :     0.013529
      dxy     :     0.019637

  1 C s       :     2.852660  s :     2.852660
      pz      :     0.995056  p :     3.098629
      px      :     1.029267
      py      :     1.074307
      dz2     :     0.007177  d :     0.105527
      dxz     :     0.010924
      dyz     :     0.012468
      dx2y2   :     0.036611
      dxy     :     0.038346

  2 C s       :     2.835397  s :     2.835397
      pz      :     0.953514  p :     3.005623
      px      :     0.952944
      py      :     1.099165
      dz2     :     0.009589  d :     0.148380
      dxz     :     0.034624
      dyz     :     0.013676
      dx2y2   :     0.050939
      dxy     :     0.039551

  3 C s       :     2.860893  s :     2.860893
      pz      :     0.972404  p :     3.065673
      px      :     1.053686
      py      :     1.039582
      dz2     :     0.006123  d :     0.092014
      dxz     :     0.013911
      dyz     :     0.006540
      dx2y2   :     0.031560
      dxy     :     0.033879

  4 C s       :     2.860879  s :     2.860879
      pz      :     0.972384  p :     3.065645
      px      :     1.053650
      py      :     1.039612
      dz2     :     0.006123  d :     0.092032
      dxz     :     0.013935
      dyz     :     0.006539
      dx2y2   :     0.031562
      dxy     :     0.033873

  5 C s       :     2.859152  s :     2.859152
      pz      :     1.047542  p :     3.121737
      px      :     1.054047
      py      :     1.020148
      dz2     :     0.006283  d :     0.086940
      dxz     :     0.011201
      dyz     :     0.005636
      dx2y2   :     0.028231
      dxy     :     0.035589

  6 C s       :     2.859203  s :     2.859203
      pz      :     1.048604  p :     3.122889
      px      :     1.054158
      py      :     1.020128
      dz2     :     0.006282  d :     0.086955
      dxz     :     0.011210
      dyz     :     0.005635
      dx2y2   :     0.028218
      dxy     :     0.035610

  7 C s       :     2.835118  s :     2.835118
      pz      :     1.064635  p :     3.137853
      px      :     1.014868
      py      :     1.058350
      dz2     :     0.014609  d :     0.073107
      dxz     :     0.014981
      dyz     :     0.011439
      dx2y2   :     0.018961
      dxy     :     0.013116

  8 H s       :     0.910216  s :     0.910216
      pz      :     0.014136  p :     0.066046
      px      :     0.017675
      py      :     0.034235

  9 H s       :     0.910209  s :     0.910209
      pz      :     0.014136  p :     0.066047
      px      :     0.017675
      py      :     0.034236

 10 H s       :     0.911573  s :     0.911573
      pz      :     0.016247  p :     0.067763
      px      :     0.017265
      py      :     0.034252

 11 H s       :     0.911626  s :     0.911626
      pz      :     0.016270  p :     0.067795
      px      :     0.017261
      py      :     0.034264

 12 H s       :     0.908987  s :     0.908987
      pz      :     0.018143  p :     0.063702
      px      :     0.015792
      py      :     0.029767

 13 H s       :     0.909039  s :     0.909039
      pz      :     0.017929  p :     0.063697
      px      :     0.015785
      py      :     0.029983

 14 H s       :     0.904103  s :     0.904103
      pz      :     0.036122  p :     0.063776
      px      :     0.015574
      py      :     0.012080

 15 H s       :     0.798817  s :     0.798817
      pz      :     0.044332  p :     0.126343
      px      :     0.028969
      py      :     0.053042

 16 H s       :     0.798543  s :     0.798543
      pz      :     0.043977  p :     0.125884
      px      :     0.028911
      py      :     0.052997

 17 O s       :     3.429227  s :     3.429227
      pz      :     1.276529  p :     4.717303
      px      :     1.552163
      py      :     1.888611
      dz2     :     0.003630  d :     0.019389
      dxz     :     0.011521
      dyz     :     0.000027
      dx2y2   :     0.003903
      dxy     :     0.000308

 18 H s       :     0.751441  s :     0.751441
      pz      :     0.047092  p :     0.175432
      px      :     0.074917
      py      :     0.053423

 19 H s       :     0.764936  s :     0.764936
      pz      :     0.095403  p :     0.198798
      px      :     0.049269
      py      :     0.054126



                      *****************************
                      * MAYER POPULATION ANALYSIS *
                      *****************************

  NA   - Mulliken gross atomic population
  ZA   - Total nuclear charge
  QA   - Mulliken gross atomic charge
  VA   - Mayer's total valence
  BVA  - Mayer's bonded valence
  FA   - Mayer's free valence

  ATOM       NA         ZA         QA         VA         BVA        FA
  0 N      7.0921     7.0000    -0.0921     3.2088     3.2088    -0.0000
  1 C      6.0385     6.0000    -0.0385     3.9470     3.9470    -0.0000
  2 C      5.9390     6.0000     0.0610     4.0303     4.0303    -0.0000
  3 C      6.0162     6.0000    -0.0162     3.8805     3.8805    -0.0000
  4 C      6.0161     6.0000    -0.0161     3.8801     3.8801    -0.0000
  5 C      6.0204     6.0000    -0.0204     3.7817     3.7817    -0.0000
  6 C      6.0224     6.0000    -0.0224     3.7811     3.7811    -0.0000
  7 C      5.9189     6.0000     0.0811     3.9060     3.9060    -0.0000
  8 H      1.0355     1.0000    -0.0355     0.9842     0.9842    -0.0000
  9 H      1.0355     1.0000    -0.0355     0.9842     0.9842    -0.0000
 10 H      1.0464     1.0000    -0.0464     0.9848     0.9848     0.0000
 11 H      1.0463     1.0000    -0.0463     0.9850     0.9850    -0.0000
 12 H      0.9912     1.0000     0.0088     0.9922     0.9922     0.0000
 13 H      0.9914     1.0000     0.0086     0.9923     0.9923    -0.0000
 14 H      0.9746     1.0000     0.0254     0.9847     0.9847     0.0000
 15 H      0.8789     1.0000     0.1211     1.0028     1.0028    -0.0000
 16 H      0.8797     1.0000     0.1203     1.0031     1.0031    -0.0000
 17 O      8.3141     8.0000    -0.3141     2.0098     2.0098     0.0000
 18 H      0.8535     1.0000     0.1465     1.0109     1.0109    -0.0000
 19 H      0.8893     1.0000     0.1107     1.1004     1.1004    -0.0000

  Mayer bond orders larger than 0.100000
B(  0-N ,  2-C ) :   1.1734 B(  0-N , 15-H ) :   0.9459 B(  0-N , 16-H ) :   0.9469 
B(  0-N , 19-H ) :   0.1092 B(  1-C ,  3-C ) :   1.3790 B(  1-C ,  4-C ) :   1.3791 
B(  1-C ,  7-C ) :   1.0648 B(  2-C ,  5-C ) :   1.3308 B(  2-C ,  6-C ) :   1.3295 
B(  3-C ,  5-C ) :   1.3900 B(  3-C ,  8-H ) :   0.9799 B(  4-C ,  6-C ) :   1.3897 
B(  4-C ,  9-H ) :   0.9800 B(  5-C , 10-H ) :   0.9842 B(  6-C , 11-H ) :   0.9843 
B(  7-C , 12-H ) :   0.9583 B(  7-C , 13-H ) :   0.9583 B(  7-C , 14-H ) :   0.9529 
B( 17-O , 18-H ) :   1.0050 B( 17-O , 19-H ) :   0.9781 

-------
TIMINGS
-------

Total SCF time: 0 days 0 hours 0 min 5 sec 

Total time                  ....       5.247 sec
Sum of individual times     ....       5.118 sec  ( 97.6%)

SCF preparation             ....       0.803 sec  ( 15.3%)
Fock matrix formation       ....       3.624 sec  ( 69.1%)
  Startup                   ....       0.125 sec  (  3.5% of F)
  Split-RI-J                ....       0.321 sec  (  8.9% of F)
  Chain of spheres X        ....       1.806 sec  ( 49.8% of F)
  XC integration            ....       1.173 sec  ( 32.4% of F)
    XC Preparation          ....       0.000 sec  (  0.0% of XC)
    Basis function eval.    ....       0.149 sec  ( 12.7% of XC)
    Density eval.           ....       0.062 sec  (  5.3% of XC)
    XC-Functional eval.     ....       0.037 sec  (  3.2% of XC)
    XC-Potential eval.      ....       0.093 sec  (  7.9% of XC)
Diagonalization             ....       0.000 sec  (  0.0%)
Density matrix formation    ....       0.232 sec  (  4.4%)
Total Energy calculation    ....       0.071 sec  (  1.3%)
Population analysis         ....       0.020 sec  (  0.4%)
Orbital Transformation      ....       0.043 sec  (  0.8%)
Orbital Orthonormalization  ....       0.000 sec  (  0.0%)
DIIS solution               ....       0.229 sec  (  4.4%)
SOSCF solution              ....       0.096 sec  (  1.8%)
Finished LeanSCF after   5.3 sec

Maximum memory used throughout the entire LEANSCF-calculation: 19.3 MB
[psid02:199605] 27 more processes have sent help message help-mpi-btl-openib.txt / ib port not selected
[psid02:199605] Set MCA parameter "orte_base_help_aggregate" to 0 to see all help / error messages
[psid02:199605] 27 more processes have sent help message help-mpi-btl-openib.txt / error in device init


-------------------------------------------------------------------------------
                          DFT DISPERSION CORRECTION                            
                                                                               
                              DFTD3 V3.1  Rev 1                                
                          USING Becke-Johnson damping                          
-------------------------------------------------------------------------------
The B3LYP functional is recognized
Active option DFTDOPT                   ...         4   

molecular C6(AA) [au] = 3694.404003 


            DFT-D V3
 parameters
 s6 scaling factor         :     1.0000 
 a1 scaling factor         :     0.3981 
 s8 scaling factor         :     1.9889 
 a2 scaling factor         :     4.4211 
 ad hoc parameters k1-k3   :    16.0000     1.3333    -4.0000 

 Edisp/kcal,au: -19.745725308152  -0.031466812882 
 E6   /kcal   :  -9.425483605 
 E8   /kcal   : -10.320241703 
 % E8         :  52.265700761 

-------------------------   ----------------
Dispersion correction           -0.031466813
-------------------------   ----------------


-------------------------   --------------------
FINAL SINGLE POINT ENERGY      -402.835362106335
-------------------------   --------------------

--------------------------------------------------------------------------
By default, for Open MPI 4.0 and later, infiniband ports on a device
are not used by default.  The intent is to use UCX for these devices.
You can override this policy by setting the btl_openib_allow_ib MCA parameter
to true.

  Local host:              psid02
  Local adapter:           mlx5_0
  Local port:              1

--------------------------------------------------------------------------
--------------------------------------------------------------------------
WARNING: There was an error initializing an OpenFabrics device.

  Local host:   psid02
  Local device: mlx5_0
--------------------------------------------------------------------------


           ************************************************************
           *        Program running with 28 parallel MPI-processes    *
           *              working on a common directory               *
           ************************************************************
------------------------------------------------------------------------------
                         ORCA SCF GRADIENT CALCULATION
------------------------------------------------------------------------------

Nuc. rep. gradient        (SHARK) ... done (  0.0 sec)
HCore & Overlap gradient  (SHARK) ... done (  0.0 sec)
Split-RIJ-J gradient      (SHARK) ... done (  0.1 sec)
COSX-gradient                     ... done (  1.0 sec)
XC gradient                       ... done (  0.2 sec)
Dispersion correction             ... done (  0.0 sec)

-------------------
DISPERSION GRADIENT
-------------------

   1   N   :   -0.000574076   -0.000009588   -0.000202226
   2   C   :    0.000473041   -0.000000805   -0.000010003
   3   C   :   -0.000354527   -0.000011323   -0.000227037
   4   C   :    0.000127207   -0.000560288   -0.000018279
   5   C   :    0.000132221    0.000558507   -0.000022002
   6   C   :   -0.000059217   -0.000585830   -0.000130050
   7   C   :   -0.000046724    0.000577396   -0.000144670
   8   C   :    0.000597738   -0.000000066   -0.000005861
   9   H   :    0.000080502   -0.000363489    0.000004167
  10   H   :    0.000081083    0.000363685    0.000003498
  11   H   :   -0.000079231   -0.000370351   -0.000035678
  12   H   :   -0.000072311    0.000373954   -0.000045203
  13   H   :    0.000284871    0.000075773    0.000055124
  14   H   :    0.000284476   -0.000076263    0.000053993
  15   H   :    0.000311530    0.000000422   -0.000134400
  16   H   :   -0.000290313    0.000101711   -0.000104797
  17   H   :   -0.000290249   -0.000112079   -0.000103639
  18   O   :   -0.000260769    0.000018616    0.000503709
  19   H   :   -0.000080013    0.000008559    0.000285112
  20   H   :   -0.000265240    0.000011461    0.000278242

Difference to translation invariance:
           :    0.0000000000   -0.0000000000    0.0000000000

Difference to rotation invariance:
           :    0.0000000000   -0.0000000000    0.0000000000

Norm of the Dispersion gradient    ...    0.0020357937
RMS gradient                       ...    0.0002628198
MAX gradient                       ...    0.0005977382

------------------
CARTESIAN GRADIENT
------------------

   1   N   :    0.003453466   -0.000342130   -0.003425356
   2   C   :    0.000520810   -0.000024652    0.000211487
   3   C   :   -0.010623489    0.000114368    0.002739819
   4   C   :   -0.000596759    0.000118926   -0.000236468
   5   C   :   -0.000645587   -0.000111152   -0.000309925
   6   C   :    0.001808259   -0.000953272   -0.000226815
   7   C   :    0.001828173    0.000908696   -0.000295175
   8   C   :   -0.000163089    0.000004249   -0.000194261
   9   H   :    0.000173462   -0.000103840    0.000034034
  10   H   :    0.000171975    0.000102858    0.000040293
  11   H   :   -0.000006412   -0.000079197    0.000066697
  12   H   :    0.000000322    0.000046681    0.000074155
  13   H   :    0.000084988    0.000057904    0.000074855
  14   H   :    0.000084146   -0.000060605    0.000071824
  15   H   :    0.000257311   -0.000000026   -0.000089303
  16   H   :    0.001365396   -0.000684993    0.002160007
  17   H   :    0.001317719    0.000558022    0.001215323
  18   O   :   -0.000406006   -0.000624327   -0.005669930
  19   H   :    0.000631850    0.000004870   -0.000089030
  20   H   :    0.000743466    0.001067616    0.003847770

Difference to translation invariance:
           :   -0.0000000001    0.0000000000    0.0000000000

Difference to rotation invariance:
           :   -0.0000008950   -0.0000104056    0.0000192716

Norm of the Cartesian gradient     ...    0.0146394109
RMS gradient                       ...    0.0018899398
MAX gradient                       ...    0.0106234893

-------
TIMINGS
-------

Total SCF gradient time     ....        1.468 sec

Densities                   ....       0.001 sec  (  0.0%)
One electron gradient       ....       0.016 sec  (  1.1%)
RI-J Coulomb gradient       ....       0.129 sec  (  8.8%)
COSX gradient               ....       1.030 sec  ( 70.2%)
XC gradient                 ....       0.243 sec  ( 16.6%)

Maximum memory used throughout the entire SCFGRAD-calculation: 30.2 MB
[...]
The output lambda is                    ....    -0.000365
The final length of the internal step   ....  0.657434819
Converting the step to Cartesian space:
 Initial RMS(Int)=    0.0567937182
Transforming coordinates:
 Iter   0:  RMS(Cart)=    0.0466163428 RMS(Int)=    0.5444144086
 Iter   5:  RMS(Cart)=    0.0007411081 RMS(Int)=    0.0015862893
 Iter  10:  RMS(Cart)=    0.0001548117 RMS(Int)=    0.0003163411
 Iter  15:  RMS(Cart)=    0.0000344764 RMS(Int)=    0.0000697536
 Iter  20:  RMS(Cart)=    0.0000077822 RMS(Int)=    0.0000157102
 Iter  25:  RMS(Cart)=    0.0000017619 RMS(Int)=    0.0000035551
 Iter  30:  RMS(Cart)=    0.0000003992 RMS(Int)=    0.0000008054
 Iter  35:  RMS(Cart)=    0.0000000905 RMS(Int)=    0.0000001825
done
Storing new coordinates                 .... done
The predicted energy change is          ....     0.381242109
Previously predicted energy change      ....    -0.000076498
Actually observed energy change         ....    -0.000097167
Ratio of predicted to observed change   ....     1.270194034
New trust radius                        ....     0.700000000

                                .--------------------.
          ----------------------|Geometry convergence|-------------------------
          Item                value                   Tolerance       Converged
          ---------------------------------------------------------------------
          Energy change      -0.0000971674            0.0000050000      NO
          RMS gradient        0.0001773716            0.0001000000      NO
          MAX gradient        0.0011989995            0.0003000000      NO
          RMS step            0.0567937182            0.0020000000      NO
          MAX step            0.3000000000            0.0040000000      NO
          ........................................................
          Max(Bonds)      0.0303      Max(Angles)    3.96
          Max(Dihed)       17.19      Max(Improp)    0.00
          ---------------------------------------------------------------------

The optimization has not yet converged - more geometry cycles are needed


    ---------------------------------------------------------------------------
                         Redundant Internal Coordinates
                            (Angstroem and degrees)

        Definition                    Value    dE/dq     Step     New-Value
    ----------------------------------------------------------------------------
     1. B(C   2,N   0)                1.4097 -0.000166 -0.0011    1.4086   
     2. B(C   3,C   1)                1.4047 -0.000074  0.0013    1.4060   
     3. B(C   4,C   1)                1.4006  0.000037 -0.0010    1.3996   
     4. B(C   5,C   3)                1.3927  0.000105 -0.0010    1.3917   
     5. B(C   5,C   2)                1.4061 -0.000138  0.0007    1.4068   
     6. B(C   6,C   4)                1.3970 -0.000009  0.0013    1.3983   
     7. B(C   6,C   2)                1.4005 -0.000228 -0.0014    1.3991   
     8. B(C   7,C   1)                1.5081 -0.000022  0.0007    1.5088   
     9. B(H   8,C   3)                1.0941 -0.000023  0.0001    1.0942   
    10. B(H   9,C   4)                1.0938 -0.000009  0.0001    1.0939   
    11. B(H  10,C   5)                1.0924  0.000003 -0.0008    1.0916   
    12. B(H  11,C   6)                1.0939 -0.000035 -0.0002    1.0937   
    13. B(H  12,C   7)                1.1008  0.000183  0.0004    1.1012   
    14. B(H  13,C   7)                1.1022  0.000130  0.0005    1.1027   
    15. B(H  14,C   7)                1.1046  0.000172  0.0005    1.1051   
    16. B(H  15,N   0)                1.0155 -0.000631 -0.0097    1.0058   
    17. B(H  16,N   0)                1.0160 -0.001199  0.0164    1.0324   
    18. B(H  18,O  17)                0.9666  0.000149 -0.0004    0.9663   
    19. B(H  19,H  16)                2.1522 -0.000285 -0.0303    2.1219   
    20. B(H  19,H  15)                2.7128 -0.000259 -0.0047    2.7082   
    21. B(H  19,N   0)                1.9634  0.000216 -0.0207    1.9427   
    22. B(H  19,C   2)                2.6308  0.000159 -0.0145    2.6163   
    23. B(H  19,O  17)                0.9753 -0.000454 -0.0010    0.9743   
    24. A(C   2,N   0,H  16)          113.20 -0.000214   -0.33    112.87   
    25. A(C   2,N   0,H  15)          114.55  0.000027   -1.37    113.18   
    26. A(H  15,N   0,H  16)          110.12  0.000029    0.22    110.33   
    27. A(H  15,N   0,H  19)          128.33  0.000050    2.29    130.62   
    28. A(C   2,N   0,H  19)          101.24  0.000045    0.15    101.38   
    29. A(H  16,N   0,H  19)           86.33  0.000011   -1.45     84.88   
    30. A(C   4,C   1,C   7)          121.58 -0.000051    0.08    121.66   
    31. A(C   3,C   1,C   4)          117.38 -0.000033    0.08    117.46   
    32. A(C   3,C   1,C   7)          121.04  0.000084   -0.16    120.88   
    33. A(C   6,C   2,H  19)          139.63  0.000036    1.67    141.30   
    34. A(C   5,C   2,H  19)           83.85 -0.000008   -1.05     82.80   
    35. A(N   0,C   2,H  19)           47.06  0.000019   -0.35     46.71   
    36. A(N   0,C   2,C   6)          121.83 -0.000032   -1.01    120.82   
    37. A(C   5,C   2,C   6)          118.58 -0.000006    0.27    118.85   
    38. A(N   0,C   2,C   5)          119.49  0.000039    0.75    120.24   
    39. A(C   1,C   3,C   5)          121.68 -0.000121    0.02    121.71   
    40. A(C   5,C   3,H   8)          118.75 -0.000353    0.46    119.21   
    41. A(C   1,C   3,H   8)          119.56  0.000474   -0.48    119.08   
    42. A(C   6,C   4,H   9)          118.98 -0.000071   -0.05    118.93   
    43. A(C   1,C   4,C   6)          121.61  0.000060   -0.04    121.57   
    44. A(C   1,C   4,H   9)          119.41  0.000011    0.08    119.50   
    45. A(C   2,C   5,H  10)          119.08  0.000155   -0.24    118.84   
    46. A(C   2,C   5,C   3)          120.31  0.000117   -0.19    120.12   
    47. A(C   3,C   5,H  10)          120.55 -0.000272    0.41    120.96   
    48. A(C   4,C   6,H  11)          119.92  0.000127   -0.23    119.69   
    49. A(C   2,C   6,H  11)          119.66 -0.000109    0.36    120.02   
    50. A(C   2,C   6,C   4)          120.42 -0.000017   -0.13    120.29   
    51. A(H  13,C   7,H  14)          106.94 -0.000045    0.01    106.95   
    52. A(H  12,C   7,H  13)          107.89 -0.000044    0.05    107.94   
    53. A(C   1,C   7,H  13)          111.51  0.000028    0.03    111.54   
    54. A(H  12,C   7,H  14)          107.35 -0.000045    0.12    107.47   
    55. A(C   1,C   7,H  12)          111.52  0.000037   -0.07    111.45   
    56. A(C   1,C   7,H  14)          111.39  0.000060   -0.13    111.26   
    57. A(N   0,H  15,H  19)           34.60  0.000048   -1.51     33.09   
    58. A(N   0,H  16,H  19)           65.56  0.000284    0.49     66.05   
    59. A(H  18,O  17,H  19)          102.49 -0.000020    0.90    103.39   
    60. A(C   2,H  19,H  16)           49.16 -0.000344    0.85     50.01   
    61. A(C   2,H  19,H  15)           45.12 -0.000119   -0.37     44.75   
    62. A(N   0,H  19,C   2)           31.71 -0.000064    0.20     31.91   
    63. A(C   2,H  19,O  17)          135.28  0.000120   -1.29    133.99   
    64. A(H  15,H  19,H  16)           37.87 -0.000322    0.33     38.20   
    65. A(N   0,H  19,H  16)           28.11 -0.000296    0.96     29.06   
    66. A(H  16,H  19,O  17)          139.94  0.000346   -3.96    135.98   
    67. A(N   0,H  19,H  15)           17.08 -0.000098   -0.78     16.30   
    68. A(H  15,H  19,O  17)          177.62  0.000020    0.41    178.03   
    69. A(N   0,H  19,O  17)          161.92  0.000113   -2.89    159.04   
    70. D(C   5,C   2,N   0,H  16)    -44.80 -0.000046   -0.63    -45.43   
    71. D(C   5,C   2,N   0,H  15)   -172.19  0.000082   -0.57   -172.76   
    72. D(C   6,C   2,N   0,H  19)   -130.33 -0.000072   -2.40   -132.73   
    73. D(C   5,C   2,N   0,H  19)     46.01 -0.000058   -2.20     43.81   
    74. D(C   6,C   2,N   0,H  16)    138.85 -0.000060   -0.82    138.03   
    75. D(C   6,C   2,N   0,H  15)     11.46  0.000068   -0.77     10.70   
    76. D(H   8,C   3,C   1,C   7)      1.73  0.000013   -0.02      1.70   
    77. D(C   5,C   3,C   1,C   4)      0.24 -0.000001    0.03      0.27   
    78. D(H   8,C   3,C   1,C   4)   -179.02  0.000011   -0.00   -179.02   
    79. D(C   5,C   3,C   1,C   7)   -179.02  0.000000    0.01   -179.01   
    80. D(H   9,C   4,C   1,C   3)    179.54  0.000002    0.10    179.64   
    81. D(C   6,C   4,C   1,C   7)    178.42  0.000002    0.03    178.45   
    82. D(H   9,C   4,C   1,C   7)     -1.21  0.000002    0.11     -1.10   
    83. D(C   6,C   4,C   1,C   3)     -0.83  0.000003    0.01     -0.82   
    84. D(C   3,C   5,C   2,N   0)   -177.62 -0.000012    0.05   -177.57   
    85. D(H  10,C   5,C   3,C   1)   -176.62 -0.000010    0.58   -176.04   
    86. D(C   2,C   5,C   3,C   1)      0.76 -0.000001   -0.13      0.62   
    87. D(H  10,C   5,C   3,H   8)      2.64 -0.000016    0.61      3.25   
    88. D(H  10,C   5,C   2,C   6)    176.26 -0.000001   -0.50    175.76   
    89. D(C   2,C   5,C   3,H   8)   -179.98 -0.000008   -0.10   -180.09   
    90. D(H  10,C   5,C   2,N   0)     -0.20 -0.000014   -0.64     -0.85   
    91. D(C   3,C   5,C   2,H  19)   -145.63 -0.000035   -1.26   -146.89   
    92. D(C   3,C   5,C   2,C   6)     -1.15  0.000002    0.19     -0.97   
    93. D(H  11,C   6,C   2,C   5)   -179.43  0.000001   -0.26   -179.68   
    94. D(C   4,C   6,C   2,H  19)    117.47  0.000017   -0.20    117.27   
    95. D(C   4,C   6,C   2,C   5)      0.57 -0.000001   -0.14      0.43   
    96. D(C   4,C   6,C   2,N   0)    176.95  0.000015    0.07    177.02   
    97. D(H  11,C   6,C   2,N   0)     -3.05  0.000017   -0.04     -3.09   
    98. D(H  11,C   6,C   4,C   1)   -179.57 -0.000004    0.16   -179.41   
    99. D(C   2,C   6,C   4,H   9)   -179.94 -0.000001   -0.04   -179.97   
   100. D(C   2,C   6,C   4,C   1)      0.43 -0.000001    0.05      0.48   
   101. D(H  11,C   6,C   4,H   9)      0.06 -0.000003    0.07      0.14   
   102. D(H  14,C   7,C   1,C   3)     76.20  0.000002   -2.83     73.37   
   103. D(H  13,C   7,C   1,C   4)    137.58  0.000001   -2.80    134.79   
   104. D(H  13,C   7,C   1,C   3)    -43.19 -0.000000   -2.78    -45.97   
   105. D(H  12,C   7,C   1,C   4)     16.89  0.000013   -2.84     14.06   
   106. D(H  12,C   7,C   1,C   3)   -163.88  0.000011   -2.82   -166.70   
   107. D(H  19,H  15,N   0,H  16)    101.69  0.000068   -0.37    101.32   
   108. D(H  19,H  15,N   0,C   2)   -129.36 -0.000180   -0.81   -130.17   
   109. D(H  19,H  16,N   0,H  15)   -129.66 -0.000065   -1.47   -131.13   
   110. D(H  19,H  16,N   0,C   2)    100.66  0.000051   -0.52    100.14   
   111. D(N   0,H  19,O  17,H  18)     76.85 -0.000231   17.19     94.04   
   112. D(C   2,H  19,H  16,N   0)    -39.77 -0.000238    0.35    -39.42   
   113. D(H  15,H  19,H  16,N   0)     26.15  0.000035   -1.21     24.95   
   114. D(C   2,H  19,H  15,N   0)     32.13 -0.000085    0.43     32.57   
   115. D(H  16,H  19,H  15,N   0)    -45.00  0.000165   -1.14    -46.14   
   116. D(O  17,H  19,H  15,N   0)    -68.65 -0.000190   17.19    -51.46   
   117. D(H  15,H  19,C   2,N   0)    -17.29  0.000109    0.55    -16.74   
   118. D(N   0,H  19,C   2,C   6)     91.00 -0.000068   -1.66     89.34   
   119. D(N   0,H  19,C   2,C   5)   -140.96 -0.000062   -1.40   -142.36   
   120. D(O  17,H  19,C   2,C   6)   -109.61  0.000062   -5.19   -114.79   
   121. D(O  17,H  19,C   2,C   5)     18.43  0.000068   -4.92     13.51   
   122. D(O  17,H  19,C   2,N   0)    159.39  0.000131   -3.52    155.87   
   123. D(H  15,H  19,C   2,C   5)   -158.25  0.000047   -0.85   -159.10   
   124. D(H  16,H  19,N   0,H  15)    112.87  0.000060    0.05    112.93   
   125. D(H  16,H  19,N   0,C   2)   -112.94  0.000215    0.00   -112.93   
   126. D(H  15,H  19,N   0,H  16)   -112.87 -0.000060   -0.05   -112.93   
   127. D(O  17,H  19,H  16,N   0)   -155.33  0.000016    1.50   -153.82   
   128. D(H  15,H  19,N   0,C   2)    134.19  0.000155   -0.05    134.14   
   129. D(O  17,H  19,N   0,H  16)     59.97 -0.000053   -9.77     50.21   
   130. D(O  17,H  19,N   0,H  15)    172.84  0.000007   -9.71    163.13   
   131. D(H  15,H  19,O  17,H  18)    138.68 -0.000038  -13.60    125.08   
   132. D(O  17,H  19,N   0,C   2)    -52.97  0.000162   -9.76    -62.73   
   133. D(C   2,H  19,O  17,H  18)     40.25 -0.000154   10.40     50.65   
   134. D(H  16,H  19,O  17,H  18)    116.18 -0.000373    6.79    122.98   
    ----------------------------------------------------------------------------

Geometry step timings:
Preparation and reading OPT file:      0.002 s (14.718 %)
Internal coordinates            :      0.000 s ( 0.290 %)
B/P matrices and projection     :      0.002 s (12.114 %)
Hessian update/contruction      :      0.004 s (26.847 %)
Making the step                 :      0.003 s (23.670 %)
Converting the step to Cartesian:      0.000 s ( 3.520 %)
Storing new data                :      0.000 s ( 3.609 %)
Checking convergence            :      0.000 s ( 0.134 %)
Final printing                  :      0.002 s (15.068 %)
Total time                      :      0.013 s
--------------------------------------------------------------------------
By default, for Open MPI 4.0 and later, infiniband ports on a device
are not used by default.  The intent is to use UCX for these devices.
You can override this policy by setting the btl_openib_allow_ib MCA parameter
to true.

  Local host:              psid02
  Local adapter:           mlx5_0
  Local port:              1

--------------------------------------------------------------------------
--------------------------------------------------------------------------
WARNING: There was an error initializing an OpenFabrics device.

  Local host:   psid02
  Local device: mlx5_0
--------------------------------------------------------------------------
[psid02:226551] 27 more processes have sent help message help-mpi-btl-openib.txt / ib port not selected
[psid02:226551] Set MCA parameter "orte_base_help_aggregate" to 0 to see all help / error messages
[psid02:226551] 27 more processes have sent help message help-mpi-btl-openib.txt / error in device init

Time for energy+gradient        :      8.884 s
Time for complete geometry iter :     10.128 s




    ----------------------------------------------------------------------------
                                  WARNING !!!
       The optimization did not converge but reached the maximum number of
       optimization cycles.
       Please check your results very carefully.
    ----------------------------------------------------------------------------



--------------------------------
SUGGESTED CITATIONS FOR THIS RUN
--------------------------------

Below you find a list of papers that are relevant to this ORCA run
We neither can nor want to force you to cite these papers, but we appreciate if you do
You receive ORCA, which is the product of decades of hard work by many enthusiastic individuals, for free
The only thing we kindly ask in return is that you cite our papers,
We deeply appreciate it, if you show your appreciation for ORCA by not just citing the generic ORCA reference.

Please note that relegating all ORCA citations to the supporting information does *not* help us.
SI sections are not indexed - citations you put there will not count into any citation statistics
But we need these citations in order to attract the funding resources that allow us to do what we are doing

Therefore, if you are a happy ORCA user, please consider citing a few of the papers listed below in the main body of your paper

In addition to the list printed below, the program has created the file p_toluidine_water_2_OPT.bibtex that contains the list in bibtex format
You can import this file easily into all common literature databanks and citation aid programs


List of essential papers. We consider these as the minimum necessary citations

  1. Neese,F.
     Software update: the ORCA program system, version 5.0
     WIRES Comput. Molec. Sci., 2022 12(1)e1606
     doi.org/10.1002/wcms.1606

List of papers to cite with high priority. The work reported in these papers was absolutely
necessary for this run to complete.
Our perspective: the developers of density functionals and basis sets usually get cited in chemistry papers
Good! But without the algorithms to do something with them, the functionals or basis sets would not do anything.
Hence, in our opinion, the algorithm design and method developments papers are equally worthy of getting cited

  1. Neese,F.
     An improvement of the resolution of the identity approximation for the formation of the Coulomb matrix
     J. Comp. Chem., 2003 24(14)1740-1747
     doi.org/10.1002/jcc.10318
  2. Neese,F.; Wennmohs,F.; Hansen,A.; Becker,U.
     Efficient, approximate and parallel Hartree-Fock and hybrid DFT calculations. A 'chain-of-spheres' algorithm for the Hartree-Fock exchange
     Chem. Phys., 2009 356(1-3)98-109
     doi.org/10.1016/j.chemphys.2008.10.036
  3. Helmich-Paris,B.; de Souza,B.; Neese,F.; Izsák,R.
     An improved chain of spheres for exchange algorithm
     J. Chem. Phys., 2021 155 104109
     doi.org/doi: 10.1063/5.0058766.
  4. Neese,F.
     The SHARK Integral Generation and Digestion System
     J. Comp. Chem., 2022  1-16
     doi.org/10.1002/jcc.26942
  5. Grimme,S.; Antony,J.; Ehrlich,S.; Krieg,H.
     A consistent and accurate ab initio parametrization of density functional dispersion correction (DFT-D) for the 94 elements H-Pu
     J. Chem. Phys., 2010 132 154104
     doi.org/10.1063/1.3382344
  6. Grimme,S.; Ehrlich,S.; Goerigk,L.
     Effect of the damping function in dispersion corrected density functional theory
     J. Comput. Chem., 2011 32(7)1456-1465
     doi.org/10.1002/jcc.21759

List of suggested additional citations. These are papers that are important in the 'surrounding' of 
of this run, or papers that preceded the highly important papers. If you like your results we are grateful for a citation.

  1. Izsak,R.; Neese,F.
     An overlap fitted chain of spheres exchange method
     J. Chem. Phys., 2011 135 144105
     doi.org/10.1063/1.3646921
  2. Izsak,R.; Hansen,A.; Neese,F.
     The resolution of identity and chain of spheres approximations for the LPNO-CCSD singles Fock term
     Molec. Phys., 2012 110 2413-2417
     doi.org/10.1080/00268976.2012.687466
  3. Neese,F.
     The ORCA program system
     WIRES Comput. Molec. Sci., 2012 2(1)73-78
     doi.org/10.1002/wcms.81
  4. Izsak,R.; Neese,F.; Klopper,W.
     Robust fitting techniques in the chain of spheres approximation to the Fock exchange: The role of the complementary space
     J. Chem. Phys., 2013 139 
     doi.org/10.1063/1.4819264
  5. Neese,F.
     Software update: the ORCA program system, version 4.0
     WIRES Comput. Molec. Sci., 2018 8(1)1-6
     doi.org/10.1002/wcms.1327
  6. Neese,F.; Wennmohs,F.; Becker,U.; Riplinger,C.
     The ORCA quantum chemistry program package
     J. Chem. Phys., 2020 152 Art. No. L224108
     doi.org/10.1063/5.0004608

List of optional additional citations

  1. Neese,F.
     Approximate second-order SCF convergence for spin unrestricted wavefunctions
     Chem. Phys. Lett., 2000 325(1-3)93-98
     doi.org/10.1016/s0009-2614(00)00662-x

Timings for individual modules:

Sum of individual times          ...      647.594 sec (=  10.793 min)
Startup calculation              ...       98.951 sec (=   1.649 min)  15.3 %
SCF iterations                   ...      408.303 sec (=   6.805 min)  63.0 %
SCF Gradient evaluation          ...      139.553 sec (=   2.326 min)  21.5 %
Geometry relaxation              ...        0.788 sec (=   0.013 min)   0.1 %
                             ****ORCA TERMINATED NORMALLY****
TOTAL RUN TIME: 0 days 0 hours 12 minutes 11 seconds 81 msec
