
                                 *****************
                                 * O   R   C   A *
                                 *****************

                                            #,                                       
                                            ###                                      
                                            ####                                     
                                            #####                                    
                                            ######                                   
                                           ########,                                 
                                     ,,################,,,,,                         
                               ,,#################################,,                 
                          ,,##########################################,,             
                       ,#########################################, ''#####,          
                    ,#############################################,,   '####,        
                  ,##################################################,,,,####,       
                ,###########''''           ''''###############################       
              ,#####''   ,,,,##########,,,,          '''####'''          '####       
            ,##' ,,,,###########################,,,                        '##       
           ' ,,###''''                  '''############,,,                           
         ,,##''                                '''############,,,,        ,,,,,,###''
      ,#''                                            '''#######################'''  
     '                                                          ''''####''''         
             ,#######,   #######,   ,#######,      ##                                
            ,#'     '#,  ##    ##  ,#'     '#,    #''#        ,####,   ,####,        
            ##       ##  ##   ,#'  ##            #'  '#       #'       #'  '#        
            ##       ##  #######   ##           ,######,      #####,   #    #        
            '#,     ,#'  ##    ##  '#,     ,#' ,#      #,     #,   #   #,  ,#        
             '#######'   ##     ##  '#######'  #'      '#     '####' # '####'        



                #########################################################
                #                        -***-                          #
                #          Department of theory and spectroscopy        #
                #                                                       #
                #                      Frank Neese                      #
                #                                                       #
                #     Directorship, Architecture, Infrastructure        #
                #                    SHARK, DRIVERS                     #
                #        Core code/Algorithms in most modules           #
                #                                                       #
                #        Max Planck Institute fuer Kohlenforschung      #
                #                Kaiser Wilhelm Platz 1                 #
                #                 D-45470 Muelheim/Ruhr                 #
                #                      Germany                          #
                #                                                       #
                #                  All rights reserved                  #
                #                        -***-                          #
                #########################################################


                         Program Version 6.0.1  -  RELEASE   -


 With contributions from (in alphabetic order):
[Max-Planck-Institut fuer Kohlenforschung]                               
  Daniel Aravena         : Magnetic Suceptibility                        
  Michael Atanasov       : Ab Initio Ligand Field Theory (pilot matlab implementation)
  Alexander A. Auer      : GIAO ZORA, VPT2 properties, NMR spectrum      
  Ute Becker             : All parallelization in ORCA, NUMFREQ, NUMCALC 
  Giovanni Bistoni       : ED, misc. LED, open-shell LED, HFLD           
  Martin Brehm           : Molecular dynamics                            
  Dmytro Bykov           : pre 5.0 version of the SCF Hessian            
  Marcos Casanova-Páez   : Triplet and SCS-CIS(D). UHF-(DLPNO)-IP/EA/STEOM-CCSD. UHF-CVS-IP/STEOM-CCSD   
  Vijay G. Chilkuri      : MRCI spin determinant printing, contributions to CSF-ICE 
  Pauline Colinet        : FMM embedding                                 
  Dipayan Datta          : RHF DLPNO-CCSD density                        
  Achintya Kumar Dutta   : EOM-CC, STEOM-CC                              
  Nicolas Foglia         : Exact transition moments, OPA infrastructure, MCD improvements    
  Dmitry Ganyushin       : Spin-Orbit,Spin-Spin,Magnetic field MRCI      
  Miquel Garcia-Rates    : C-PCM and meta-GGA Hessian, CCSD/C-PCM, Gaussian charge scheme 
  Tiago L. C. Gouveia    : GS-ROHF, GS-ROCIS                             
  Yang Guo               : DLPNO-NEVPT2, F12-NEVPT2, CIM, IAO-localization        
  Andreas Hansen         : Spin unrestricted coupled pair/coupled cluster methods 
  Ingolf Harden          : AUTO-CI MPn and infrastructure                
  Benjamin Helmich-Paris : MC-RPA, TRAH-(SCF,CASSCF), AVAS, COSX integrals, SCF dyn. polar. 
  Lee Huntington         : MR-EOM, pCC                                   
  Robert Izsak           : Overlap fitted RIJCOSX, COSX-SCS-MP3, EOM     
  Riya Kayal             : Wick's Theorem for AUTO-CI, AUTO-CI UHF-CCSDT 
  Emily Kempfer          : AUTO-CI, RHF CISDT and CCSDT                  
  Christian Kollmar      : KDIIS, OOCD, Brueckner-CCSD(T), CCSD density, CASPT2, CASPT2-K, improved NEVPT2 
  Axel Koslowski         : Symmetry handling                             
  Simone Kossmann        : meta-GGA functionals, TD-DFT gradient, OOMP2, (MP2 Hessian; deprecated post 5.0) 
  Lucas Lang             : DCDCAS                                        
  Marvin Lechner         : AUTO-CI (C++ implementation), FIC-MRCC        
  Spencer Leger          : CASSCF response                               
  Dagmar Lenk            : GEPOL surface, SMD, ORCA-2-JSON               
  Dimitrios Liakos       : Extrapolation schemes; Compound Job, initial MDCI parallelization 
  Dimitrios Manganas     : Further ROCIS development; embedding schemes. LFT, Crystal Embedding 
  Dimitrios Pantazis     : SARC Basis sets                               
  Anastasios Papadopoulos: AUTO-CI, single reference methods and gradients 
  Taras Petrenko         : pre 6.0 DFT Hessian and TD-DFT gradient, (ASA, deprecated), ECA, 1-Electron XAS/XES, NRVS 
  Peter Pinski           : DLPNO-MP2, DLPNO-MP2 Gradient                 
  Christoph Reimann      : Effective Core Potentials                     
  Marius Retegan         : Local ZFS, SOC                                
  Christoph Riplinger    : Optimizer, TS searches, QM/MM, DLPNO-CCSD(T), (RO)-DLPNO pert. Triples 
  Michael Roemelt        : Original ROCIS implementation                 
  Masaaki Saitow         : Open-shell DLPNO-CCSD energy and density      
  Barbara Sandhoefer     : DKH picture change effects                    
  Kantharuban Sivalingam : CASSCF convergence/infrastructure, NEVPT2 and variants, FIC-MRCI 
  Bernardo de Souza      : ESD, SOC TD-DFT                               
  Georgi L. Stoychev     : AutoAux, RI-MP2 NMR, DLPNO-MP2 response, X2C  
  Van Anh Tran           : RI-MP2 g-tensors                              
  Willem Van den Heuvel  : Paramagnetic NMR                              
  Zikuan Wang            : NOTCH, Electric field optimization            
  Frank Wennmohs         : Technical directorship and infrastructure     
  Hang Xu                : AUTO-CI-Response properties                   
                                                                         
[FACCTs GmbH]                                                            
  Markus Bursch, Miquel Garcia-Rates, Christoph Riplinger, Bernardo de Souza, Georgi L. Stoychev 
                                                                 
  APM, Basis sets (HGBS, AHGBS, def-TZVP (Ac-Lr), def2-XVPD (La-Lu)), CI-OPT, improved COSX, DLPNO-Multilevel,           
  DOCKER, DRACO, updates on ESD, GOAT, IRC, LR-CPCM, MBIS, meta-GGA TD-DFT gradient, ML-optimized integration grids, 
  MM, NACMEs, nearIR, NEB, NEB-TS, NL-DFT gradient (VV10), 2- and 3-layer-ONIOM, interface openCOSMO-RS, QMMM,   
  Crystal-QMMM, SF, symmetry and pop. for TD-DFT, r2SCAN hybrids, SOLVATOR                                   
                                                                         
[Other institutions]                                                     
  V. Asgeirsson          : NEB                                           
  Christoph Bannwarth    : sTDA-DFT, sTD-DFT, PBEh-3c, B97-3c, D3        
  Sebastian Ehlert       : rSCAN, r2SCAN, r2SCAN-3c, D4, dhf basis sets  
  Marvin Friede          : D4 for Fr, Ra, Ac-Lr                          
  Lars Goerigk           : TD-DFT with DH, B97 family of functionals     
  Stefan Grimme          : VdW corrections, initial TS optimization, DFT functionals, gCP, sTDA/sTD-DF 
  Waldemar Hujo          : DFT-NL                                        
  H. Jonsson             : NEB                                           
  Holger Kruse           : gCP                                           
  Marcel Mueller         : wB97X-3c, vDZP basis set                      
  Hagen Neugebauer       : wr2SCAN                                       
  Tobias Risthaus        : range-separated hybrid DFT                    
  Lukas Wittmann         : regularized MP2, r2SCAN double-hybrids, wr2SCAN        
                                                                         
We gratefully acknowledge several colleagues who have allowed us to      
interface, adapt or use parts of their codes:                            
  Ed Valeev, F. Pavosevic, A. Kumar             : LibInt (2-el integral package), F12 methods 
  Garnet Chan, S. Sharma, J. Yang, R. Olivares  : DMRG                   
  Ulf Ekstrom                                   : XCFun DFT Library      
  Mihaly Kallay                                 : mrcc  (arbitrary order and MRCC methods)
  Frank Weinhold                                : gennbo (NPA and NBO analysis)           
  Simon Mueller                                 : openCOSMO-RS                            
  Christopher J. Cramer and Donald G. Truhlar   : smd solvation model                     
  S Lehtola, MJT Oliveira, MAL Marques          : LibXC Library                           
  Liviu Ungur et al                             : ANISO software                          


 Your calculation uses the libint2 library for the computation of 2-el integrals
 For citations please refer to: http://libint.valeyev.net

 Your ORCA version has been built with support for libXC version: 6.2.2
 For citations please refer to: https://libxc.gitlab.io

 This ORCA versions uses:
   CBLAS   interface :  Fast vector & matrix operations
   LAPACKE interface :  Fast linear algebra routines
   SCALAPACK package :  Parallel linear algebra routines
   Shared memory     :  Shared parallel matrices
   BLAS/LAPACK       :  OpenBLAS 0.3.27  USE64BITINT DYNAMIC_ARCH NO_AFFINITY SkylakeX SINGLE_THREADED
        Core in use  :  SkylakeX
   Copyright (c) 2011-2014, The OpenBLAS Project


NOTE: MaxCore=5000 MB was set to SCF,MP2,MDCI,CIPSI,MRCI and CIS
      => If you want to overwrite this, your respective input block should be placed after the MaxCore statement
Warning: RI is on but no J-basis has been assigned. Assigning Def2/J (nothing to worry about!)
================================================================================

----- Orbital basis set information -----
Your calculation utilizes the basis: def2-SVP
   F. Weigend and R. Ahlrichs, Phys. Chem. Chem. Phys. 7, 3297 (2005).

----- AuxJ basis set information -----
Your calculation utilizes the auxiliary basis: def2/J
   F. Weigend, Phys. Chem. Chem. Phys. 8, 1057 (2006).

================================================================================
                                        WARNINGS
                       Please study these warnings very carefully!
================================================================================


================================================================================
                                       INPUT FILE
================================================================================
NAME = aniline_3.inp
|  1> ! B3LYP def2-SVP SP TightSCF ALLPOP KEEPDENS ChelpG
|  2> 
|  3> %maxcore 5000
|  4> 
|  5> %pal
|  6> nprocs 20
|  7> end
|  8> 
|  9> * xyz 0 1
| 10>   N          -2.39477299613526     -0.00014746416076      0.00259155610327
| 11>   C          -1.02006085102483     -0.00002898782985      0.00109768082725
| 12>   C          -0.29451578003690      1.21010597484804      0.00070864056743
| 13>   C          -0.29430791483652     -1.21004077914909      0.00073496591759
| 14>   C           1.09919968425860      1.20294323285157      0.00006895525262
| 15>   C           1.09940698448867     -1.20263828463898      0.00009765014726
| 16>   C           1.81286451075136      0.00021330386914     -0.00024143264361
| 17>   H          -0.83698073701803      2.16008099735458      0.00100027329149
| 18>   H          -0.83660594655977     -2.16011144279987      0.00104691858265
| 19>   H           1.63556709517397      2.15589602034020     -0.00022602752111
| 20>   H           1.63593400755151     -2.15550137440929     -0.00017410803890
| 21>   H           2.90478340008884      0.00031041490686     -0.00077570690125
| 22>   H          -2.91228313491186     -0.86570237283610     -0.00320161588796
| 23>   H          -2.91242832178980      0.86532076165356     -0.00322774969673
| 24> *
| 25> 
| 26>                          ****END OF INPUT****
================================================================================

                       ****************************
                       * Single Point Calculation *
                       ****************************

---------------------------------
CARTESIAN COORDINATES (ANGSTROEM)
---------------------------------
  N     -2.394773   -0.000147    0.002592
  C     -1.020061   -0.000029    0.001098
  C     -0.294516    1.210106    0.000709
  C     -0.294308   -1.210041    0.000735
  C      1.099200    1.202943    0.000069
  C      1.099407   -1.202638    0.000098
  C      1.812865    0.000213   -0.000241
  H     -0.836981    2.160081    0.001000
  H     -0.836606   -2.160111    0.001047
  H      1.635567    2.155896   -0.000226
  H      1.635934   -2.155501   -0.000174
  H      2.904783    0.000310   -0.000776
  H     -2.912283   -0.865702   -0.003202
  H     -2.912428    0.865321   -0.003228

----------------------------
CARTESIAN COORDINATES (A.U.)
----------------------------
  NO LB      ZA    FRAG     MASS         X           Y           Z
   0 N     7.0000    0    14.007   -4.525465   -0.000279    0.004897
   1 C     6.0000    0    12.011   -1.927636   -0.000055    0.002074
   2 C     6.0000    0    12.011   -0.556554    2.286769    0.001339
   3 C     6.0000    0    12.011   -0.556161   -2.286646    0.001389
   4 C     6.0000    0    12.011    2.077186    2.273233    0.000130
   5 C     6.0000    0    12.011    2.077578   -2.272657    0.000185
   6 C     6.0000    0    12.011    3.425817    0.000403   -0.000456
   7 H     1.0000    0     1.008   -1.581664    4.081962    0.001890
   8 H     1.0000    0     1.008   -1.580956   -4.082019    0.001978
   9 H     1.0000    0     1.008    3.090774    4.074053   -0.000427
  10 H     1.0000    0     1.008    3.091467   -4.073307   -0.000329
  11 H     1.0000    0     1.008    5.489245    0.000587   -0.001466
  12 H     1.0000    0     1.008   -5.503418   -1.635940   -0.006050
  13 H     1.0000    0     1.008   -5.503692    1.635219   -0.006100

--------------------------------
INTERNAL COORDINATES (ANGSTROEM)
--------------------------------
 N      0   0   0     0.000000000000     0.00000000     0.00000000
 C      1   0   0     1.374712961899     0.00000000     0.00000000
 C      2   1   0     1.410972157515   120.95003233     0.00000000
 C      2   1   3     1.410973419693   120.94996665   179.96092077
 C      3   2   1     1.393734016765   120.65064113   179.95808039
 C      4   2   1     1.393734703485   120.65059593   180.04204040
 C      6   4   2     1.398525545256   120.97812665     0.00000000
 H      3   2   1     1.093947374415   119.32720089   359.96326928
 H      4   2   1     1.093947676288   119.32746570     0.03675148
 H      5   3   2     1.093530567332   119.07843566   179.99971900
 H      6   4   2     1.093530698323   119.07817209   180.00012780
 H      7   6   4     1.091919024366   120.67890781   180.00213690
 H      1   2   3     1.008481831522   120.87888805   179.59818940
 H      1   2   3     1.008482102168   120.87861237     0.44137183

---------------------------
INTERNAL COORDINATES (A.U.)
---------------------------
 N      0   0   0     0.000000000000     0.00000000     0.00000000
 C      1   0   0     2.597831010742     0.00000000     0.00000000
 C      2   1   0     2.666350960291   120.95003233     0.00000000
 C      2   1   3     2.666353345462   120.94996665   179.96092077
 C      3   2   1     2.633775595215   120.65064113   179.95808039
 C      4   2   1     2.633776892928   120.65059593   180.04204040
 C      6   4   2     2.642830271827   120.97812665     0.00000000
 H      3   2   1     2.067260942566   119.32720089   359.96326928
 H      4   2   1     2.067261513023   119.32746570     0.03675148
 H      5   3   2     2.066473291329   119.07843566   179.99971900
 H      6   4   2     2.066473538867   119.07817209   180.00012780
 H      7   6   4     2.063427916469   120.67890781   180.00213690
 H      1   2   3     1.905754472612   120.87888805   179.59818940
 H      1   2   3     1.905754984058   120.87861237     0.44137183

---------------------
BASIS SET INFORMATION
---------------------
There are 3 groups of distinct atoms

 Group   1 Type N   : 7s4p1d contracted to 3s2p1d pattern {511/31/1}
 Group   2 Type C   : 7s4p1d contracted to 3s2p1d pattern {511/31/1}
 Group   3 Type H   : 4s1p contracted to 2s1p pattern {31/1}

Atom   0N    basis set group =>   1
Atom   1C    basis set group =>   2
Atom   2C    basis set group =>   2
Atom   3C    basis set group =>   2
Atom   4C    basis set group =>   2
Atom   5C    basis set group =>   2
Atom   6C    basis set group =>   2
Atom   7H    basis set group =>   3
Atom   8H    basis set group =>   3
Atom   9H    basis set group =>   3
Atom  10H    basis set group =>   3
Atom  11H    basis set group =>   3
Atom  12H    basis set group =>   3
Atom  13H    basis set group =>   3
---------------------------------
AUXILIARY/J BASIS SET INFORMATION
---------------------------------
There are 3 groups of distinct atoms

 Group   1 Type N   : 12s5p4d2f1g contracted to 6s4p3d1f1g pattern {711111/2111/211/2/1}
 Group   2 Type C   : 12s5p4d2f1g contracted to 6s4p3d1f1g pattern {711111/2111/211/2/1}
 Group   3 Type H   : 5s2p1d contracted to 3s1p1d pattern {311/2/1}

Atom   0N    basis set group =>   1
Atom   1C    basis set group =>   2
Atom   2C    basis set group =>   2
Atom   3C    basis set group =>   2
Atom   4C    basis set group =>   2
Atom   5C    basis set group =>   2
Atom   6C    basis set group =>   2
Atom   7H    basis set group =>   3
Atom   8H    basis set group =>   3
Atom   9H    basis set group =>   3
Atom  10H    basis set group =>   3
Atom  11H    basis set group =>   3
Atom  12H    basis set group =>   3
Atom  13H    basis set group =>   3


           ************************************************************
           *        Program running with 20 parallel MPI-processes    *
           *              working on a common directory               *
           ************************************************************
------------------------------------------------------------------------------
                             ORCA STARTUP CALCULATIONS
                           -- RI-GTO INTEGRALS CHOSEN --
------------------------------------------------------------------------------
------------------------------------------------------------------------------
                   ___                                                        
                  /   \      - P O W E R E D   B Y -                         
                 /     \                                                     
                 |  |  |   _    _      __       _____    __    __             
                 |  |  |  | |  | |    /  \     |  _  \  |  |  /  |          
                  \  \/   | |  | |   /    \    | | | |  |  | /  /          
                 / \  \   | |__| |  /  /\  \   | |_| |  |  |/  /          
                |  |  |   |  __  | /  /__\  \  |    /   |      \           
                |  |  |   | |  | | |   __   |  |    \   |  |\   \          
                \     /   | |  | | |  |  |  |  | |\  \  |  | \   \       
                 \___/    |_|  |_| |__|  |__|  |_| \__\ |__|  \__/        
                                                                              
                      - O R C A' S   B I G   F R I E N D -                    
                                      &                                       
                       - I N T E G R A L  F E E D E R -                       
                                                                              
 v1 FN, 2020, v2 2021, v3 2022-2024                                           
------------------------------------------------------------------------------


----------------------
SHARK INTEGRAL PACKAGE
----------------------

Number of atoms                             ...     14
Number of basis functions                   ...    133
Number of shells                            ...     63
Maximum angular momentum                    ...      2
Integral batch strategy                     ... SHARK/LIBINT Hybrid
RI-J (if used) integral strategy            ... SPLIT-RIJ (Revised 2003 algorithm where possible)
Printlevel                                  ...      1
Contraction scheme used                     ... SEGMENTED contraction
Prescreening option                         ... SCHWARTZ
   Thresh                                   ... 2.500e-11
   Tcut                                     ... 2.500e-12
   Tpresel                                  ... 2.500e-12 
Coulomb Range Separation                    ... NOT USED
Exchange Range Separation                   ... NOT USED
Multipole approximations                    ... NOT USED
Finite Nucleus Model                        ... NOT USED
CABS basis                                  ... NOT available
Auxiliary Coulomb fitting basis             ... AVAILABLE
   # of basis functions in Aux-J            ...    420
   # of shells in Aux-J                     ...    140
   Maximum angular momentum in Aux-J        ...      4
Auxiliary J/K fitting basis                 ... NOT available
Auxiliary Correlation fitting basis         ... NOT available
Auxiliary 'external' fitting basis          ... NOT available

Checking pre-screening integrals            ... done (  0.0 sec) Dimension = 63
Check shell pair data                       ... done (  0.0 sec)
Shell pair information
Shell pair cut-off parameter TPreSel        ...   2.5e-12
Total number of shell pairs                 ...      2016
Shell pairs after pre-screening             ...      1943
Total number of primitive shell pairs       ...      7252
Primitive shell pairs kept                  ...      5307
          la=0 lb=0:    606 shell pairs
          la=1 lb=0:    707 shell pairs
          la=1 lb=1:    222 shell pairs
          la=2 lb=0:    238 shell pairs
          la=2 lb=1:    142 shell pairs
          la=2 lb=2:     28 shell pairs

Calculating one electron integrals          ... done (  0.0 sec)
Calculating RI/J V-Matrix + Cholesky decomp.... done (  0.0 sec)
Calculating Nuclear repulsion               ... done (  0.0 sec) ENN=    270.779414596385 Eh

Diagonalization of the overlap matrix:
Smallest eigenvalue                        ... 2.897e-04
Time for diagonalization                   ...    0.002 sec
Threshold for overlap eigenvalues          ... 1.000e-07
Number of eigenvalues below threshold      ... 0
Time for construction of square roots      ...    0.002 sec
Total time needed                          ...    0.008 sec

-------------------
DFT GRID GENERATION
-------------------

General Integration Accuracy     IntAcc      ... 4.388
Radial Grid Type                 RadialGrid  ... OptM3 with GC (2021)
Angular Grid (max. ang.)         AngularGrid ... 4 (Lebedev-302)
Angular grid pruning method      GridPruning ... 4 (adaptive)
Weight generation scheme         WeightScheme... mBecke (2022)
Basis function cutoff            BFCut       ... 1.0000e-11
Integration weight cutoff        WCut        ... 1.0000e-14
Partially contracted basis set               ... off
Rotationally invariant grid construction     ... off
Angular grids for H and He will be reduced by one unit

Total number of grid points                  ...    64717
Total number of batches                      ...     1019
Average number of points per batch           ...       63
Average number of grid points per atom       ...     4623

--------------------
COSX GRID GENERATION
--------------------

GRIDX 1
-------
General Integration Accuracy     IntAcc      ... 3.816
Radial Grid Type                 RadialGrid  ... OptM3 with GC (2021)
Angular Grid (max. ang.)         AngularGrid ... 1 (Lebedev-50)
Angular grid pruning method      GridPruning ... 4 (adaptive)
Weight generation scheme         WeightScheme... mBecke (2022)
Basis function cutoff            BFCut       ... 1.0000e-11
Integration weight cutoff        WCut        ... 1.0000e-14
Partially contracted basis set               ... on
Rotationally invariant grid construction     ... off
Angular grids for H and He will be reduced by one unit

Total number of grid points                  ...     8306
Total number of batches                      ...       71
Average number of points per batch           ...      116
Average number of grid points per atom       ...      593
UseSFitting                                  ... on

GRIDX 2
-------
General Integration Accuracy     IntAcc      ... 4.020
Radial Grid Type                 RadialGrid  ... OptM3 with GC (2021)
Angular Grid (max. ang.)         AngularGrid ... 2 (Lebedev-110)
Angular grid pruning method      GridPruning ... 4 (adaptive)
Weight generation scheme         WeightScheme... mBecke (2022)
Basis function cutoff            BFCut       ... 1.0000e-11
Integration weight cutoff        WCut        ... 1.0000e-14
Partially contracted basis set               ... on
Rotationally invariant grid construction     ... off
Angular grids for H and He will be reduced by one unit

Total number of grid points                  ...    17977
Total number of batches                      ...      146
Average number of points per batch           ...      123
Average number of grid points per atom       ...     1284
UseSFitting                                  ... on

GRIDX 3
-------
General Integration Accuracy     IntAcc      ... 4.338
Radial Grid Type                 RadialGrid  ... OptM3 with GC (2021)
Angular Grid (max. ang.)         AngularGrid ... 3 (Lebedev-194)
Angular grid pruning method      GridPruning ... 4 (adaptive)
Weight generation scheme         WeightScheme... mBecke (2022)
Basis function cutoff            BFCut       ... 1.0000e-11
Integration weight cutoff        WCut        ... 1.0000e-14
Partially contracted basis set               ... on
Rotationally invariant grid construction     ... off
Angular grids for H and He will be reduced by one unit

Total number of grid points                  ...    39553
Total number of batches                      ...      316
Average number of points per batch           ...      125
Average number of grid points per atom       ...     2825
UseSFitting                                  ... on
Initializing property integral containers    ... done (  0.0 sec)

SHARK setup successfully completed in   0.6 seconds

Maximum memory used throughout the entire STARTUP-calculation: 16.5 MB


           ************************************************************
           *        Program running with 20 parallel MPI-processes    *
           *              working on a common directory               *
           ************************************************************
-------------------------------------------------------------------------------
                                 ORCA GUESS
                   Start orbitals & Density for SCF / CASSCF
-------------------------------------------------------------------------------

------------
SCF SETTINGS
------------
Hamiltonian:
 Density Functional     Method          .... DFT(GTOs)
 Exchange Functional    Exchange        .... B88
   X-Alpha parameter    XAlpha          ....  0.666667
   Becke's b parameter  XBeta           ....  0.004200
 Correlation Functional Correlation     .... LYP
 LDA part of GGA corr.  LDAOpt          .... VWN-5
 Gradients option       PostSCFGGA      .... off
 Hybrid DFT is turned on
   Fraction HF Exchange ScalHFX         ....  0.200000
   Scaling of DF-GGA-X  ScalDFX         ....  0.720000
   Scaling of DF-GGA-C  ScalDFC         ....  0.810000
   Scaling of DF-LDA-C  ScalLDAC        ....  1.000000
   Perturbative correction              ....  0.000000
   NL short-range parameter             ....  4.800000
 RI-approximation to the Coulomb term is turned on
   Number of AuxJ basis functions       .... 420
   RIJ-COSX (HFX calculated with COS-X)).... on


General Settings:
 Integral files         IntName         .... aniline_3
 Hartree-Fock type      HFTyp           .... RHF
 Total Charge           Charge          ....    0
 Multiplicity           Mult            ....    1
 Number of Electrons    NEL             ....   50
 Basis Dimension        Dim             ....  133
 Nuclear Repulsion      ENuc            ....    270.7794145964 Eh

Convergence Acceleration:
 AO-DIIS                CNVDIIS         .... on
   Start iteration      DIISMaxIt       ....    12
   Startup error        DIISStart       ....  0.200000
   # of expansion vecs  DIISMaxEq       ....     5
   Bias factor          DIISBfac        ....   1.050
   Max. coefficient     DIISMaxC        ....  10.000
 MO-DIIS                CNVKDIIS        .... off
 Trust-Rad. Augm. Hess. CNVTRAH         .... auto
   Auto Start mean grad. ratio tolernc. ....  1.125000
   Auto Start start iteration           ....    50
   Auto Start num. interpolation iter.  ....    10
   Max. Number of Micro iterations      ....    24
   Max. Number of Macro iterations      .... Maxiter - #DIIS iter
   Number of Davidson start vectors     ....     2
   Converg. threshold    (grad. norm)   ....   1.000e-05
   Grad. Scal. Fac. for Micro threshold ....   0.100
   Minimum threshold for Micro iter.    ....   1.000e-02
   NR start threshold (gradient norm)   ....   1.000e-04
   Initial trust radius                 ....   0.400
   Minimum AH scaling param. (alpha)    ....   1.000
   Maximum AH scaling param. (alpha)    .... 1000.000
   Quad. conv. algorithm                .... NR
   White noise on init. David. guess    .... on
   Maximum white noise                  ....   0.010
   Pseudo random numbers                .... off
   Inactive MOs                         .... canonical
   Orbital update algorithm             .... Taylor
   Preconditioner                       .... Diag
   Full preconditioner red. dimension   ....   250
 SOSCF                  CNVSOSCF        .... on
   Start iteration      SOSCFMaxIt      ....   150
   Startup grad/error   SOSCFStart      ....  0.003300
   Hessian update       SOSCFHessUp     .... L-BFGS
 Level Shifting         CNVShift        .... on
   Level shift para.    LevelShift      ....    0.2500
   Turn off err/grad.   ShiftErr        ....    0.0010
 Zerner damping         CNVZerner       .... off
 Static damping         CNVDamp         .... on
   Fraction old density DampFac         ....    0.7000
   Max. Damping (<1)    DampMax         ....    0.9800
   Min. Damping (>=0)   DampMin         ....    0.0000
   Turn off err/grad.   DampErr         ....    0.1000

SCF Procedure:
 Maximum # iterations   MaxIter         ....   125
 SCF integral mode      SCFMode         .... Direct
   Integral package                     .... SHARK and LIBINT hybrid scheme
 Reset frequency        DirectResetFreq ....    20
 Integral Threshold     Thresh          ....  2.500e-11 Eh
 Primitive CutOff       TCut            ....  2.500e-12 Eh

Convergence Tolerance:
 Convergence Check Mode ConvCheckMode   .... Total+1el-Energy
 Convergence forced     ConvForced      .... 0
 Energy Change          TolE            ....  1.000e-08 Eh
 1-El. energy change                    ....  1.000e-05 Eh
 Orbital Gradient       TolG            ....  1.000e-05
 Orbital Rotation angle TolX            ....  1.000e-05
 DIIS Error             TolErr          ....  5.000e-07

------------------------------
INITIAL GUESS: MODEL POTENTIAL
------------------------------
Loading Hartree-Fock densities                     ... done
Calculating cut-offs                               ... done
Initializing the effective Hamiltonian             ... done
Setting up the integral package (SHARK)            ... done
Starting the Coulomb interaction                   ... done (   0.0 sec)
Making the grid                                    ... done (   0.1 sec)
Mapping shells                                     ... done
Starting the XC term evaluation                    ... done (   0.0 sec)
  promolecular density results
     # of electrons  =     49.997404635
     EX              =    -39.494927663
     EC              =     -1.657864678
     EX+EC           =    -41.152792341
Transforming the Hamiltonian                       ... done (   0.0 sec)
Diagonalizing the Hamiltonian                      ... done (   0.0 sec)
Back transforming the eigenvectors                 ... done (   0.0 sec)
Now organizing SCF variables                       ... done
                      ------------------
                      INITIAL GUESS DONE (   0.1 sec)
                      ------------------
             **** ENERGY FILE WAS UPDATED (aniline_3.en.tmp) ****
Finished Guess after   0.7 sec
Maximum memory used throughout the entire GUESS-calculation: 9.6 MB


           ************************************************************
           *        Program running with 20 parallel MPI-processes    *
           *              working on a common directory               *
           ************************************************************

-------------------------------------------------------------------------------------------
                                      ORCA LEAN-SCF
                              memory conserving SCF solver
-------------------------------------------------------------------------------------------

----------------------------------------D-I-I-S--------------------------------------------
Iteration    Energy (Eh)           Delta-E    RMSDP     MaxDP     DIISErr   Damp  Time(sec)
-------------------------------------------------------------------------------------------
               ***  Starting incremental Fock matrix formation  ***
    1    -287.0189407856765911     0.00e+00  4.49e-03  7.99e-02  2.33e-01  0.700   0.3
    2    -287.1091312583694162    -9.02e-02  3.15e-03  4.75e-02  1.15e-01  0.700   0.2
                               ***Turning on AO-DIIS***
    3    -287.1476258402467465    -3.85e-02  1.39e-03  1.70e-02  4.21e-02  0.700   0.2
    4    -287.1697389268997540    -2.21e-02  2.53e-03  3.45e-02  2.39e-02  0.000   0.2
    5    -287.2170873880934323    -4.73e-02  3.28e-04  4.67e-03  5.20e-03  0.000   0.2
                              *** Initializing SOSCF ***
---------------------------------------S-O-S-C-F--------------------------------------
Iteration    Energy (Eh)           Delta-E    RMSDP     MaxDP     MaxGrad    Time(sec)
--------------------------------------------------------------------------------------
    6    -287.2173433907804565    -2.56e-04  1.32e-04  2.08e-03  1.99e-03     0.2
               *** Restarting incremental Fock matrix formation ***
    7    -287.2173455169152021    -2.13e-06  8.13e-05  1.19e-03  2.67e-04     0.3
    8    -287.2173452734008379     2.44e-07  2.88e-05  6.09e-04  3.30e-04     0.2
    9    -287.2173476452685463    -2.37e-06  1.51e-05  2.22e-04  8.43e-05     0.3
   10    -287.2173476047029226     4.06e-08  7.82e-06  1.42e-04  8.10e-05     0.2
   11    -287.2173477450496648    -1.40e-07  2.78e-06  8.62e-05  1.80e-05     0.2
   12    -287.2173477414984291     3.55e-09  1.61e-06  5.25e-05  2.72e-05     0.2
                 **** Energy Check signals convergence ****

               *****************************************************
               *                     SUCCESS                       *
               *           SCF CONVERGED AFTER  12 CYCLES          *
               *****************************************************

Recomputing exchange energy using gridx3       ... done (    0.222 sec)
Old exchange energy                            :     -8.026652428 Eh
New exchange energy                            :     -8.026647326 Eh
Exchange energy change after final integration :      0.000005102 Eh
Total energy after final integration           :   -287.217342639 Eh
             **** ENERGY FILE WAS UPDATED (aniline_3.en.tmp) ****

----------------
TOTAL SCF ENERGY
----------------

Total Energy       :       -287.21734263912055 Eh           -7815.58123 eV

Components:
Nuclear Repulsion  :        270.77941459638487 Eh            7368.28247 eV
Electronic Energy  :       -557.99676233788318 Eh          -15183.86384 eV
One Electron Energy:       -923.13376036509851 Eh          -25119.74668 eV
Two Electron Energy:        365.13699802721527 Eh            9935.88285 eV

Virial components:
Potential Energy   :       -571.32069997506210 Eh          -15546.42661 eV
Kinetic Energy     :        284.10335733594150 Eh            7730.84538 eV
Virial Ratio       :          2.01096074799108

DFT components:
N(Alpha)           :       25.000014272215 electrons
N(Beta)            :       25.000014272215 electrons
N(Total)           :       50.000028544430 electrons
E(X)               :      -31.869200626822 Eh       
E(C)               :       -1.963217860522 Eh       
E(XC)              :      -33.832418487343 Eh       

---------------
SCF CONVERGENCE
---------------

  Last Energy change         ...   -3.5512e-09  Tolerance :   1.0000e-08
  Last MAX-Density change    ...    5.2510e-05  Tolerance :   1.0000e-07
  Last RMS-Density change    ...    1.6108e-06  Tolerance :   5.0000e-09
  Last DIIS Error            ...    1.9929e-03  Tolerance :   5.0000e-07
  Last Orbital Gradient      ...    2.7227e-05  Tolerance :   1.0000e-05
  Last Orbital Rotation      ...    3.1843e-05  Tolerance :   1.0000e-05


----------------
ORBITAL ENERGIES
----------------

  NO   OCC          E(Eh)            E(eV) 
   0   2.0000     -14.330581      -389.9549 
   1   2.0000     -10.221488      -278.1408 
   2   2.0000     -10.176944      -276.9287 
   3   2.0000     -10.176931      -276.9284 
   4   2.0000     -10.171338      -276.7762 
   5   2.0000     -10.171336      -276.7761 
   6   2.0000     -10.165123      -276.6071 
   7   2.0000      -0.904211       -24.6048 
   8   2.0000      -0.816393       -22.2152 
   9   2.0000      -0.723963       -19.7000 
  10   2.0000      -0.706919       -19.2362 
  11   2.0000      -0.597723       -16.2649 
  12   2.0000      -0.587031       -15.9739 
  13   2.0000      -0.517847       -14.0913 
  14   2.0000      -0.510338       -13.8870 
  15   2.0000      -0.467641       -12.7252 
  16   2.0000      -0.421739       -11.4761 
  17   2.0000      -0.421169       -11.4606 
  18   2.0000      -0.406837       -11.0706 
  19   2.0000      -0.376846       -10.2545 
  20   2.0000      -0.349175        -9.5015 
  21   2.0000      -0.331262        -9.0141 
  22   2.0000      -0.303839        -8.2679 
  23   2.0000      -0.242085        -6.5875 
  24   2.0000      -0.192687        -5.2433 
  25   0.0000       0.005664         0.1541 
  26   0.0000       0.025166         0.6848 
  27   0.0000       0.055234         1.5030 
  28   0.0000       0.077209         2.1010 
  29   0.0000       0.089486         2.4350 
  30   0.0000       0.126877         3.4525 
  31   0.0000       0.128039         3.4841 
  32   0.0000       0.163364         4.4454 
  33   0.0000       0.165010         4.4901 
  34   0.0000       0.170591         4.6420 
  35   0.0000       0.270169         7.3517 
*Only the first 10 virtual orbitals were printed.

                    ********************************
                    * MULLIKEN POPULATION ANALYSIS *
                    ********************************

-----------------------
MULLIKEN ATOMIC CHARGES
-----------------------
   0 N :   -0.082688
   1 C :    0.086530
   2 C :   -0.035654
   3 C :   -0.035654
   4 C :    0.016066
   5 C :    0.016065
   6 C :    0.007017
   7 H :   -0.051735
   8 H :   -0.051734
   9 H :   -0.024784
  10 H :   -0.024784
  11 H :   -0.030024
  12 H :    0.105689
  13 H :    0.105689
Sum of atomic charges:   -0.0000000

--------------------------------
MULLIKEN REDUCED ORBITAL CHARGES
--------------------------------
  0 N s       :     3.275737  s :     3.275737
      pz      :     1.770006  p :     3.791962
      px      :     1.042295
      py      :     0.979661
      dz2     :     0.001764  d :     0.014989
      dxz     :     0.002535
      dyz     :     0.000032
      dx2y2   :     0.004216
      dxy     :     0.006443

  1 C s       :     2.976402  s :     2.976402
      pz      :     0.941158  p :     2.875057
      px      :     0.896804
      py      :     1.037095
      dz2     :     0.004367  d :     0.062011
      dxz     :     0.016731
      dyz     :     0.006575
      dx2y2   :     0.019281
      dxy     :     0.015056

  2 C s       :     3.216787  s :     3.216787
      pz      :     1.082213  p :     2.786568
      px      :     0.877746
      py      :     0.826609
      dz2     :     0.002632  d :     0.032300
      dxz     :     0.005071
      dyz     :     0.002866
      dx2y2   :     0.009242
      dxy     :     0.012489

  3 C s       :     3.216785  s :     3.216785
      pz      :     1.082213  p :     2.786570
      px      :     0.877777
      py      :     0.826580
      dz2     :     0.002632  d :     0.032300
      dxz     :     0.005072
      dyz     :     0.002865
      dx2y2   :     0.009242
      dxy     :     0.012488

  4 C s       :     3.161620  s :     3.161620
      pz      :     0.975443  p :     2.786153
      px      :     0.937562
      py      :     0.873149
      dz2     :     0.002543  d :     0.036161
      dxz     :     0.006777
      dyz     :     0.003511
      dx2y2   :     0.011313
      dxy     :     0.012016

  5 C s       :     3.161621  s :     3.161621
      pz      :     0.975443  p :     2.786153
      px      :     0.937546
      py      :     0.873163
      dz2     :     0.002543  d :     0.036161
      dxz     :     0.006776
      dyz     :     0.003512
      dx2y2   :     0.011312
      dxy     :     0.012017

  6 C s       :     3.150935  s :     3.150935
      pz      :     1.049991  p :     2.807942
      px      :     0.806636
      py      :     0.951315
      dz2     :     0.002530  d :     0.034105
      dxz     :     0.002361
      dyz     :     0.005882
      dx2y2   :     0.012599
      dxy     :     0.010733

  7 H s       :     1.028786  s :     1.028786
      pz      :     0.005419  p :     0.022949
      px      :     0.005779
      py      :     0.011751

  8 H s       :     1.028785  s :     1.028785
      pz      :     0.005419  p :     0.022949
      px      :     0.005777
      py      :     0.011753

  9 H s       :     1.002046  s :     1.002046
      pz      :     0.004686  p :     0.022738
      px      :     0.006198
      py      :     0.011854

 10 H s       :     1.002046  s :     1.002046
      pz      :     0.004686  p :     0.022738
      px      :     0.006200
      py      :     0.011852

 11 H s       :     1.007070  s :     1.007070
      pz      :     0.005270  p :     0.022954
      px      :     0.014477
      py      :     0.003207

 12 H s       :     0.849071  s :     0.849071
      pz      :     0.013726  p :     0.045240
      px      :     0.011650
      py      :     0.019864

 13 H s       :     0.849071  s :     0.849071
      pz      :     0.013725  p :     0.045240
      px      :     0.011653
      py      :     0.019862



                     *******************************
                     * LOEWDIN POPULATION ANALYSIS *
                     *******************************

----------------------
LOEWDIN ATOMIC CHARGES
----------------------
   0 N :   -0.023666
   1 C :    0.030283
   2 C :   -0.075527
   3 C :   -0.075527
   4 C :   -0.016541
   5 C :   -0.016541
   6 C :   -0.069028
   7 H :    0.017467
   8 H :    0.017467
   9 H :    0.024548
  10 H :    0.024548
  11 H :    0.021059
  12 H :    0.070730
  13 H :    0.070730

-------------------------------
LOEWDIN REDUCED ORBITAL CHARGES
-------------------------------
  0 N s       :     3.015710  s :     3.015710
      pz      :     1.692481  p :     3.966730
      px      :     1.135891
      py      :     1.138358
      dz2     :     0.002847  d :     0.041227
      dxz     :     0.004900
      dyz     :     0.000036
      dx2y2   :     0.013546
      dxy     :     0.019897

  1 C s       :     2.834797  s :     2.834797
      pz      :     0.934345  p :     2.986878
      px      :     0.955494
      py      :     1.097040
      dz2     :     0.009491  d :     0.148042
      dxz     :     0.035253
      dyz     :     0.013544
      dx2y2   :     0.050411
      dxy     :     0.039343

  2 C s       :     2.859199  s :     2.859199
      pz      :     1.058469  p :     3.130201
      px      :     1.052971
      py      :     1.018761
      dz2     :     0.006280  d :     0.086128
      dxz     :     0.010559
      dyz     :     0.005316
      dx2y2   :     0.028304
      dxy     :     0.035668

  3 C s       :     2.859199  s :     2.859199
      pz      :     1.058469  p :     3.130200
      px      :     1.052972
      py      :     1.018759
      dz2     :     0.006280  d :     0.086127
      dxz     :     0.010561
      dyz     :     0.005315
      dx2y2   :     0.028305
      dxy     :     0.035667

  4 C s       :     2.861275  s :     2.861275
      pz      :     0.958034  p :     3.062460
      px      :     1.059607
      py      :     1.044819
      dz2     :     0.006086  d :     0.092806
      dxz     :     0.014492
      dyz     :     0.006835
      dx2y2   :     0.031898
      dxy     :     0.033497

  5 C s       :     2.861275  s :     2.861275
      pz      :     0.958034  p :     3.062460
      px      :     1.059602
      py      :     1.044824
      dz2     :     0.006086  d :     0.092806
      dxz     :     0.014490
      dyz     :     0.006837
      dx2y2   :     0.031896
      dxy     :     0.033499

  6 C s       :     2.858039  s :     2.858039
      pz      :     1.030823  p :     3.121902
      px      :     1.030676
      py      :     1.060403
      dz2     :     0.006206  d :     0.089087
      dxz     :     0.003996
      dyz     :     0.012719
      dx2y2   :     0.035100
      dxy     :     0.031066

  7 H s       :     0.914774  s :     0.914774
      pz      :     0.016620  p :     0.067759
      px      :     0.017352
      py      :     0.033787

  8 H s       :     0.914774  s :     0.914774
      pz      :     0.016620  p :     0.067759
      px      :     0.017348
      py      :     0.033791

  9 H s       :     0.909789  s :     0.909789
      pz      :     0.013828  p :     0.065663
      px      :     0.018013
      py      :     0.033822

 10 H s       :     0.909789  s :     0.909789
      pz      :     0.013828  p :     0.065663
      px      :     0.018018
      py      :     0.033817

 11 H s       :     0.911502  s :     0.911502
      pz      :     0.016084  p :     0.067439
      px      :     0.040584
      py      :     0.010771

 12 H s       :     0.805169  s :     0.805169
      pz      :     0.043745  p :     0.124101
      px      :     0.028316
      py      :     0.052041

 13 H s       :     0.805169  s :     0.805169
      pz      :     0.043745  p :     0.124101
      px      :     0.028323
      py      :     0.052033



                      *****************************
                      * MAYER POPULATION ANALYSIS *
                      *****************************

  NA   - Mulliken gross atomic population
  ZA   - Total nuclear charge
  QA   - Mulliken gross atomic charge
  VA   - Mayer's total valence
  BVA  - Mayer's bonded valence
  FA   - Mayer's free valence

  ATOM       NA         ZA         QA         VA         BVA        FA
  0 N      7.0827     7.0000    -0.0827     3.1974     3.1974     0.0000
  1 C      5.9135     6.0000     0.0865     4.0612     4.0612    -0.0000
  2 C      6.0357     6.0000    -0.0357     3.7918     3.7918    -0.0000
  3 C      6.0357     6.0000    -0.0357     3.7918     3.7918    -0.0000
  4 C      5.9839     6.0000     0.0161     3.8710     3.8710     0.0000
  5 C      5.9839     6.0000     0.0161     3.8710     3.8710    -0.0000
  6 C      5.9930     6.0000     0.0070     3.8104     3.8104     0.0000
  7 H      1.0517     1.0000    -0.0517     0.9838     0.9838     0.0000
  8 H      1.0517     1.0000    -0.0517     0.9838     0.9838    -0.0000
  9 H      1.0248     1.0000    -0.0248     0.9759     0.9759     0.0000
 10 H      1.0248     1.0000    -0.0248     0.9759     0.9759    -0.0000
 11 H      1.0300     1.0000    -0.0300     0.9772     0.9772     0.0000
 12 H      0.8943     1.0000     0.1057     1.0033     1.0033    -0.0000
 13 H      0.8943     1.0000     0.1057     1.0033     1.0033    -0.0000

  Mayer bond orders larger than 0.100000
B(  0-N ,  1-C ) :   1.2388 B(  0-N , 12-H ) :   0.9509 B(  0-N , 13-H ) :   0.9509 
B(  1-C ,  2-C ) :   1.3200 B(  1-C ,  3-C ) :   1.3200 B(  2-C ,  4-C ) :   1.4065 
B(  2-C ,  7-H ) :   0.9835 B(  3-C ,  5-C ) :   1.4065 B(  3-C ,  8-H ) :   0.9835 
B(  4-C ,  6-C ) :   1.3714 B(  4-C ,  9-H ) :   0.9783 B(  5-C ,  6-C ) :   1.3714 
B(  5-C , 10-H ) :   0.9783 B(  6-C , 11-H ) :   0.9870 

Environment variable NBOEXE for nbo6.exe or nbo5.exe not set! Skipping NBO-Analysis

-------------------------
CHELPG CHARGES GENERATION
-------------------------
Grid spacing                       ...     0.300000
Point Cut-Off                      ...     2.800000
Van-der-Waals Radii                ...        COSMO
Total charge                       ...            0
Dipole moment constraint           ...        FALSE


Number of points X direction       ...           38
Number of points Y direction       ...           33
Number of points Z direction       ...           18
Maximum number of possible points  ...        22572
Final number of points             ...         9452


Grid generated                     ...   0.0 sec
Potential calculated               ...   0.0 sec
RespFile stored                    ... ok
Charges calculated                 ...   0.0 sec
CHELPG Charges            
--------------------------------
  0   N   :      -0.888921
  1   C   :       0.514130
  2   C   :      -0.341508
  3   C   :      -0.342478
  4   C   :      -0.054050
  5   C   :      -0.053299
  6   C   :      -0.225084
  7   H   :       0.142450
  8   H   :       0.142803
  9   H   :       0.112229
 10   H   :       0.112190
 11   H   :       0.122780
 12   H   :       0.379347
 13   H   :       0.379410
--------------------------------
Total charge:     0.000000
--------------------------------

CHELPG charges calculated...

Timings:
Grid generation                 ...        0.001 sec (=   0.000 min)
Potential calculation           ...        0.041 sec (=   0.001 min)
Fit to the potential            ...        0.004 sec (=   0.000 min)
------------------------------------------------------------------------------

-------
TIMINGS
-------

Total SCF time: 0 days 0 hours 0 min 3 sec 

Total time                  ....       3.695 sec
Sum of individual times     ....       3.601 sec  ( 97.5%)

SCF preparation             ....       0.583 sec  ( 15.8%)
Fock matrix formation       ....       2.566 sec  ( 69.4%)
  Startup                   ....       0.052 sec  (  2.0% of F)
  Split-RI-J                ....       0.199 sec  (  7.7% of F)
  Chain of spheres X        ....       1.362 sec  ( 53.1% of F)
  XC integration            ....       0.842 sec  ( 32.8% of F)
    XC Preparation          ....       0.000 sec  (  0.0% of XC)
    Basis function eval.    ....       0.133 sec  ( 15.8% of XC)
    Density eval.           ....       0.051 sec  (  6.0% of XC)
    XC-Functional eval.     ....       0.036 sec  (  4.3% of XC)
    XC-Potential eval.      ....       0.081 sec  (  9.6% of XC)
Diagonalization             ....       0.000 sec  (  0.0%)
Density matrix formation    ....       0.118 sec  (  3.2%)
Total Energy calculation    ....       0.043 sec  (  1.2%)
Population analysis         ....       0.084 sec  (  2.3%)
Orbital Transformation      ....       0.019 sec  (  0.5%)
Orbital Orthonormalization  ....       0.000 sec  (  0.0%)
DIIS solution               ....       0.119 sec  (  3.2%)
SOSCF solution              ....       0.069 sec  (  1.9%)
Finished LeanSCF after   3.7 sec

Maximum memory used throughout the entire LEANSCF-calculation: 13.7 MB

-------------------------   --------------------
FINAL SINGLE POINT ENERGY      -287.217342639121
-------------------------   --------------------



           ************************************************************
           *        Program running with 20 parallel MPI-processes    *
           *              working on a common directory               *
           ************************************************************

------------------------------------------------------------------------------
                              ORCA PROPERTY CALCULATIONS
------------------------------------------------------------------------------

GBWName                                 ... aniline_3.gbw
Number of atoms                         ...     14
Number of basis functions               ...    133
Max core memory                         ...   5000 MB

Electric properties:
Dipole moment                           ... YES
Quadrupole moment                       ...  NO
Static polarizability (Dipole/Dipole)   ...  NO
Static polarizability (Dipole/Quad.)    ...  NO
Static polarizability (Quad./Quad.)     ...  NO
Static polarizability (Velocity)        ...  NO

Atomic electric properties:
Dipole moment                           ...  NO
Quadrupole moment                       ...  NO
Static polarizability                   ...  NO

Choice of electric origin               ... Center of mass
Position of electric origin             ...    -0.122129     0.000099     0.001224

General magnetic properties:
Magnetizability                         ...  NO

EPR properties:
g-Tensor (aka g-matrix)                 ...  NO
Zero-Field splitting spin-orbit         ...  NO
Zero-field splitting spin-spin          ...  NO
Hyperfine couplings                     ...  NO (   0 nuclei)
Quadrupole couplings                    ...  NO (   0 nuclei)
Contact density                         ...  NO (   0 nuclei)

NMR properties:
Chemical shifts                         ...  NO (   0 nuclei)
Spin-rotation constants                 ...  NO (   0 nuclei)
Spin-spin couplings                     ...  NO (   0 nuclei,    0 pairs)

Choice of magnetic origin               ... GIAO
Position of magnetic origin             ...     0.000000     0.000000     0.000000

Properties with geometric perturbations:
SCF Hessian                             ...  NO
IR spectrum                             ...  NO
VCD spectrum                            ...  NO
X-ray spectroscopy properties:
SCF XES/XAS/RIXS spectra                ...  NO


-------------
DIPOLE MOMENT
-------------

Method             : SCF
Type of density    : Electron Density
Multiplicity       :   1
Irrep              :   0
Energy             :  -287.2173426391205453 Eh
Relativity type    : 
Basis              : AO
                                X                 Y                 Z
Electronic contribution:     -0.016834269      -0.000001351       0.002916372
Nuclear contribution   :     -0.828688457      -0.000071003      -0.009457466
                        -----------------------------------------
Total Dipole Moment    :     -0.845522726      -0.000072354      -0.006541094
                        -----------------------------------------
Magnitude (a.u.)       :      0.845548030
Magnitude (Debye)      :      2.149212293



--------------------
Rotational spectrum 
--------------------
 
Rotational constants in cm-1:             0.186865             0.086257             0.059016 
Rotational constants in MHz :          5602.067849          2585.928245          1769.242666 

Dipole components along the rotational axes: 
x,y,z [a.u.] :    -0.845520    -0.000000    -0.006932 
x,y,z [Debye]:    -2.149140    -0.000000    -0.017621 

 

Dipole moment calculation done in   0.0 sec 

Maximum memory used throughout the entire PROP-calculation: 6.4 MB

--------------------------------
SUGGESTED CITATIONS FOR THIS RUN
--------------------------------

Below you find a list of papers that are relevant to this ORCA run
We neither can nor want to force you to cite these papers, but we appreciate if you do
You receive ORCA, which is the product of decades of hard work by many enthusiastic individuals, for free
The only thing we kindly ask in return is that you cite our papers,
We deeply appreciate it, if you show your appreciation for ORCA by not just citing the generic ORCA reference.

Please note that relegating all ORCA citations to the supporting information does *not* help us.
SI sections are not indexed - citations you put there will not count into any citation statistics
But we need these citations in order to attract the funding resources that allow us to do what we are doing

Therefore, if you are a happy ORCA user, please consider citing a few of the papers listed below in the main body of your paper

In addition to the list printed below, the program has created the file aniline_3.bibtex that contains the list in bibtex format
You can import this file easily into all common literature databanks and citation aid programs


List of essential papers. We consider these as the minimum necessary citations

  1. Neese,F.
     Software update: the ORCA program system, version 5.0
     WIRES Comput. Molec. Sci., 2022 12(1)e1606
     doi.org/10.1002/wcms.1606

List of papers to cite with high priority. The work reported in these papers was absolutely
necessary for this run to complete.
Our perspective: the developers of density functionals and basis sets usually get cited in chemistry papers
Good! But without the algorithms to do something with them, the functionals or basis sets would not do anything.
Hence, in our opinion, the algorithm design and method developments papers are equally worthy of getting cited

  1. Neese,F.
     An improvement of the resolution of the identity approximation for the formation of the Coulomb matrix
     J. Comp. Chem., 2003 24(14)1740-1747
     doi.org/10.1002/jcc.10318
  2. Neese,F.; Wennmohs,F.; Hansen,A.; Becker,U.
     Efficient, approximate and parallel Hartree-Fock and hybrid DFT calculations. A 'chain-of-spheres' algorithm for the Hartree-Fock exchange
     Chem. Phys., 2009 356(1-3)98-109
     doi.org/10.1016/j.chemphys.2008.10.036
  3. Helmich-Paris,B.; de Souza,B.; Neese,F.; Izsák,R.
     An improved chain of spheres for exchange algorithm
     J. Chem. Phys., 2021 155 104109
     doi.org/doi: 10.1063/5.0058766.
  4. Neese,F.
     The SHARK Integral Generation and Digestion System
     J. Comp. Chem., 2022  1-16
     doi.org/10.1002/jcc.26942

List of suggested additional citations. These are papers that are important in the 'surrounding' of 
of this run, or papers that preceded the highly important papers. If you like your results we are grateful for a citation.

  1. Izsak,R.; Neese,F.
     An overlap fitted chain of spheres exchange method
     J. Chem. Phys., 2011 135 144105
     doi.org/10.1063/1.3646921
  2. Izsak,R.; Hansen,A.; Neese,F.
     The resolution of identity and chain of spheres approximations for the LPNO-CCSD singles Fock term
     Molec. Phys., 2012 110 2413-2417
     doi.org/10.1080/00268976.2012.687466
  3. Neese,F.
     The ORCA program system
     WIRES Comput. Molec. Sci., 2012 2(1)73-78
     doi.org/10.1002/wcms.81
  4. Izsak,R.; Neese,F.; Klopper,W.
     Robust fitting techniques in the chain of spheres approximation to the Fock exchange: The role of the complementary space
     J. Chem. Phys., 2013 139 
     doi.org/10.1063/1.4819264
  5. Neese,F.
     Software update: the ORCA program system, version 4.0
     WIRES Comput. Molec. Sci., 2018 8(1)1-6
     doi.org/10.1002/wcms.1327
  6. Neese,F.; Wennmohs,F.; Becker,U.; Riplinger,C.
     The ORCA quantum chemistry program package
     J. Chem. Phys., 2020 152 Art. No. L224108
     doi.org/10.1063/5.0004608

List of optional additional citations

  1. Neese,F.
     Approximate second-order SCF convergence for spin unrestricted wavefunctions
     Chem. Phys. Lett., 2000 325(1-3)93-98
     doi.org/10.1016/s0009-2614(00)00662-x

Timings for individual modules:

Sum of individual times          ...        6.455 sec (=   0.108 min)
Startup calculation              ...        1.226 sec (=   0.020 min)  19.0 %
SCF iterations                   ...        4.599 sec (=   0.077 min)  71.2 %
Property calculations            ...        0.631 sec (=   0.011 min)   9.8 %
                             ****ORCA TERMINATED NORMALLY****
TOTAL RUN TIME: 0 days 0 hours 0 minutes 7 seconds 263 msec
