
                                 *****************
                                 * O   R   C   A *
                                 *****************

                                            #,                                       
                                            ###                                      
                                            ####                                     
                                            #####                                    
                                            ######                                   
                                           ########,                                 
                                     ,,################,,,,,                         
                               ,,#################################,,                 
                          ,,##########################################,,             
                       ,#########################################, ''#####,          
                    ,#############################################,,   '####,        
                  ,##################################################,,,,####,       
                ,###########''''           ''''###############################       
              ,#####''   ,,,,##########,,,,          '''####'''          '####       
            ,##' ,,,,###########################,,,                        '##       
           ' ,,###''''                  '''############,,,                           
         ,,##''                                '''############,,,,        ,,,,,,###''
      ,#''                                            '''#######################'''  
     '                                                          ''''####''''         
             ,#######,   #######,   ,#######,      ##                                
            ,#'     '#,  ##    ##  ,#'     '#,    #''#        ,####,   ,####,        
            ##       ##  ##   ,#'  ##            #'  '#       #'       #'  '#        
            ##       ##  #######   ##           ,######,      #####,   #    #        
            '#,     ,#'  ##    ##  '#,     ,#' ,#      #,     #,   #   #,  ,#        
             '#######'   ##     ##  '#######'  #'      '#     '####' # '####'        



                #########################################################
                #                        -***-                          #
                #          Department of theory and spectroscopy        #
                #                                                       #
                #                      Frank Neese                      #
                #                                                       #
                #     Directorship, Architecture, Infrastructure        #
                #                    SHARK, DRIVERS                     #
                #        Core code/Algorithms in most modules           #
                #                                                       #
                #        Max Planck Institute fuer Kohlenforschung      #
                #                Kaiser Wilhelm Platz 1                 #
                #                 D-45470 Muelheim/Ruhr                 #
                #                      Germany                          #
                #                                                       #
                #                  All rights reserved                  #
                #                        -***-                          #
                #########################################################


                         Program Version 6.0.1  -  RELEASE   -


 With contributions from (in alphabetic order):
[Max-Planck-Institut fuer Kohlenforschung]                               
  Daniel Aravena         : Magnetic Suceptibility                        
  Michael Atanasov       : Ab Initio Ligand Field Theory (pilot matlab implementation)
  Alexander A. Auer      : GIAO ZORA, VPT2 properties, NMR spectrum      
  Ute Becker             : All parallelization in ORCA, NUMFREQ, NUMCALC 
  Giovanni Bistoni       : ED, misc. LED, open-shell LED, HFLD           
  Martin Brehm           : Molecular dynamics                            
  Dmytro Bykov           : pre 5.0 version of the SCF Hessian            
  Marcos Casanova-Páez   : Triplet and SCS-CIS(D). UHF-(DLPNO)-IP/EA/STEOM-CCSD. UHF-CVS-IP/STEOM-CCSD   
  Vijay G. Chilkuri      : MRCI spin determinant printing, contributions to CSF-ICE 
  Pauline Colinet        : FMM embedding                                 
  Dipayan Datta          : RHF DLPNO-CCSD density                        
  Achintya Kumar Dutta   : EOM-CC, STEOM-CC                              
  Nicolas Foglia         : Exact transition moments, OPA infrastructure, MCD improvements    
  Dmitry Ganyushin       : Spin-Orbit,Spin-Spin,Magnetic field MRCI      
  Miquel Garcia-Rates    : C-PCM and meta-GGA Hessian, CCSD/C-PCM, Gaussian charge scheme 
  Tiago L. C. Gouveia    : GS-ROHF, GS-ROCIS                             
  Yang Guo               : DLPNO-NEVPT2, F12-NEVPT2, CIM, IAO-localization        
  Andreas Hansen         : Spin unrestricted coupled pair/coupled cluster methods 
  Ingolf Harden          : AUTO-CI MPn and infrastructure                
  Benjamin Helmich-Paris : MC-RPA, TRAH-(SCF,CASSCF), AVAS, COSX integrals, SCF dyn. polar. 
  Lee Huntington         : MR-EOM, pCC                                   
  Robert Izsak           : Overlap fitted RIJCOSX, COSX-SCS-MP3, EOM     
  Riya Kayal             : Wick's Theorem for AUTO-CI, AUTO-CI UHF-CCSDT 
  Emily Kempfer          : AUTO-CI, RHF CISDT and CCSDT                  
  Christian Kollmar      : KDIIS, OOCD, Brueckner-CCSD(T), CCSD density, CASPT2, CASPT2-K, improved NEVPT2 
  Axel Koslowski         : Symmetry handling                             
  Simone Kossmann        : meta-GGA functionals, TD-DFT gradient, OOMP2, (MP2 Hessian; deprecated post 5.0) 
  Lucas Lang             : DCDCAS                                        
  Marvin Lechner         : AUTO-CI (C++ implementation), FIC-MRCC        
  Spencer Leger          : CASSCF response                               
  Dagmar Lenk            : GEPOL surface, SMD, ORCA-2-JSON               
  Dimitrios Liakos       : Extrapolation schemes; Compound Job, initial MDCI parallelization 
  Dimitrios Manganas     : Further ROCIS development; embedding schemes. LFT, Crystal Embedding 
  Dimitrios Pantazis     : SARC Basis sets                               
  Anastasios Papadopoulos: AUTO-CI, single reference methods and gradients 
  Taras Petrenko         : pre 6.0 DFT Hessian and TD-DFT gradient, (ASA, deprecated), ECA, 1-Electron XAS/XES, NRVS 
  Peter Pinski           : DLPNO-MP2, DLPNO-MP2 Gradient                 
  Christoph Reimann      : Effective Core Potentials                     
  Marius Retegan         : Local ZFS, SOC                                
  Christoph Riplinger    : Optimizer, TS searches, QM/MM, DLPNO-CCSD(T), (RO)-DLPNO pert. Triples 
  Michael Roemelt        : Original ROCIS implementation                 
  Masaaki Saitow         : Open-shell DLPNO-CCSD energy and density      
  Barbara Sandhoefer     : DKH picture change effects                    
  Kantharuban Sivalingam : CASSCF convergence/infrastructure, NEVPT2 and variants, FIC-MRCI 
  Bernardo de Souza      : ESD, SOC TD-DFT                               
  Georgi L. Stoychev     : AutoAux, RI-MP2 NMR, DLPNO-MP2 response, X2C  
  Van Anh Tran           : RI-MP2 g-tensors                              
  Willem Van den Heuvel  : Paramagnetic NMR                              
  Zikuan Wang            : NOTCH, Electric field optimization            
  Frank Wennmohs         : Technical directorship and infrastructure     
  Hang Xu                : AUTO-CI-Response properties                   
                                                                         
[FACCTs GmbH]                                                            
  Markus Bursch, Miquel Garcia-Rates, Christoph Riplinger, Bernardo de Souza, Georgi L. Stoychev 
                                                                 
  APM, Basis sets (HGBS, AHGBS, def-TZVP (Ac-Lr), def2-XVPD (La-Lu)), CI-OPT, improved COSX, DLPNO-Multilevel,           
  DOCKER, DRACO, updates on ESD, GOAT, IRC, LR-CPCM, MBIS, meta-GGA TD-DFT gradient, ML-optimized integration grids, 
  MM, NACMEs, nearIR, NEB, NEB-TS, NL-DFT gradient (VV10), 2- and 3-layer-ONIOM, interface openCOSMO-RS, QMMM,   
  Crystal-QMMM, SF, symmetry and pop. for TD-DFT, r2SCAN hybrids, SOLVATOR                                   
                                                                         
[Other institutions]                                                     
  V. Asgeirsson          : NEB                                           
  Christoph Bannwarth    : sTDA-DFT, sTD-DFT, PBEh-3c, B97-3c, D3        
  Sebastian Ehlert       : rSCAN, r2SCAN, r2SCAN-3c, D4, dhf basis sets  
  Marvin Friede          : D4 for Fr, Ra, Ac-Lr                          
  Lars Goerigk           : TD-DFT with DH, B97 family of functionals     
  Stefan Grimme          : VdW corrections, initial TS optimization, DFT functionals, gCP, sTDA/sTD-DF 
  Waldemar Hujo          : DFT-NL                                        
  H. Jonsson             : NEB                                           
  Holger Kruse           : gCP                                           
  Marcel Mueller         : wB97X-3c, vDZP basis set                      
  Hagen Neugebauer       : wr2SCAN                                       
  Tobias Risthaus        : range-separated hybrid DFT                    
  Lukas Wittmann         : regularized MP2, r2SCAN double-hybrids, wr2SCAN        
                                                                         
We gratefully acknowledge several colleagues who have allowed us to      
interface, adapt or use parts of their codes:                            
  Ed Valeev, F. Pavosevic, A. Kumar             : LibInt (2-el integral package), F12 methods 
  Garnet Chan, S. Sharma, J. Yang, R. Olivares  : DMRG                   
  Ulf Ekstrom                                   : XCFun DFT Library      
  Mihaly Kallay                                 : mrcc  (arbitrary order and MRCC methods)
  Frank Weinhold                                : gennbo (NPA and NBO analysis)           
  Simon Mueller                                 : openCOSMO-RS                            
  Christopher J. Cramer and Donald G. Truhlar   : smd solvation model                     
  S Lehtola, MJT Oliveira, MAL Marques          : LibXC Library                           
  Liviu Ungur et al                             : ANISO software                          


 Your calculation uses the libint2 library for the computation of 2-el integrals
 For citations please refer to: http://libint.valeyev.net

 Your ORCA version has been built with support for libXC version: 6.2.2
 For citations please refer to: https://libxc.gitlab.io

 This ORCA versions uses:
   CBLAS   interface :  Fast vector & matrix operations
   LAPACKE interface :  Fast linear algebra routines
   SCALAPACK package :  Parallel linear algebra routines
   Shared memory     :  Shared parallel matrices
   BLAS/LAPACK       :  OpenBLAS 0.3.27  USE64BITINT DYNAMIC_ARCH NO_AFFINITY SkylakeX SINGLE_THREADED
        Core in use  :  SkylakeX
   Copyright (c) 2011-2014, The OpenBLAS Project


NOTE: MaxCore=5000 MB was set to SCF,MP2,MDCI,CIPSI,MRCI and CIS
      => If you want to overwrite this, your respective input block should be placed after the MaxCore statement
Warning: RI is on but no J-basis has been assigned. Assigning Def2/J (nothing to worry about!)
================================================================================

----- Orbital basis set information -----
Your calculation utilizes the basis: def2-SVP
   F. Weigend and R. Ahlrichs, Phys. Chem. Chem. Phys. 7, 3297 (2005).

----- AuxJ basis set information -----
Your calculation utilizes the auxiliary basis: def2/J
   F. Weigend, Phys. Chem. Chem. Phys. 8, 1057 (2006).

================================================================================
                                        WARNINGS
                       Please study these warnings very carefully!
================================================================================


================================================================================
                                       INPUT FILE
================================================================================
NAME = c60malonicester.inp
|  1> # avogadro generated ORCA input file 
|  2> # Basic Mode
|  3> # 
|  4> ! B3LYP def2-SVP SP TightSCF ALLPOP KEEPDENS ChelpG
|  5> 
|  6> %maxcore 5000
|  7> 
|  8> %pal
|  9> nprocs 20
| 10> end
| 11> 
| 12> * xyz 0 1
| 13>    C        3.36385       -1.99584        0.38646
| 14>    C        3.66055       -0.57285        0.43521
| 15>    C        3.24083        0.19236        1.52993
| 16>    C        2.65579       -2.60009        1.43242
| 17>    C        3.06154       -2.34719       -0.99412
| 18>    C        3.52891       -0.04432       -0.91554
| 19>    C        2.68634        1.51935        1.31924
| 20>    C        2.49219       -0.43431        2.60563
| 21>    C        1.61945       -3.57839        1.13966
| 22>    C        2.20962       -1.80097        2.56343
| 23>    C        2.06732       -3.28952       -1.27468
| 24>    C        3.16250       -1.13814       -1.79683
| 25>    C        2.96525        1.21888       -1.11221
| 26>    C        1.58281        1.70918        2.24615
| 27>    C        2.55208        2.00833        0.02176
| 28>    C        1.46576        0.50539        3.03265
| 29>    C        1.33369       -3.91928       -0.18663
| 30>    C        0.53446       -3.38568        2.09143
| 31>    C        0.89500       -2.28044        2.96586
| 32>    C        1.13794       -3.06222       -2.37168
| 33>    C        2.25990       -0.90971       -2.83933
| 34>    C        2.00935        1.46506       -2.17527
| 35>    C        0.46725        2.47722        1.87801
| 36>    C        1.41956        2.82563       -0.34340
| 37>    C        0.20174        0.05572        3.39970
| 38>    C       -0.04719       -4.08725       -0.61375
| 39>    C       -0.79306       -3.54695        1.68045
| 40>    C       -0.08459       -1.37201        3.38264
| 41>    C       -0.16724       -3.56163       -1.96546
| 42>    C        1.23252       -1.89436       -3.13820
| 43>    C        1.68026        0.41383       -3.03167
| 44>    C        1.00726        2.43337       -1.70273
| 45>    C        0.57561        3.29583        0.66903
| 46>    C       -0.88661        1.96651        2.18929
| 47>    C       -0.98028        0.78308        2.96108
| 48>    C       -1.08994       -3.90896        0.30161
| 49>    C       -1.81255       -2.61139        2.12910
| 50>    C       -1.45957       -1.53957        2.95751
| 51>    C       -1.32709       -2.88258       -2.35126
| 52>    C        0.02672       -1.18089       -3.52921
| 53>    C        0.30692        0.24734       -3.45636
| 54>    C       -0.33714        2.27445       -2.12066
| 55>    C       -1.50375        3.04089        0.03062
| 56>    C       -1.90782        2.18383        1.14331
| 57>    C       -2.01310       -0.21479        2.71689
| 58>    C       -2.29807       -3.20460       -0.09952
| 59>    C       -2.74662       -2.40642        1.03166
| 60>    C       -2.41515       -2.70096       -1.40056
| 61>    C       -1.22687       -1.67322       -3.15453
| 62>    C       -0.66507        1.14123       -3.00315
| 63>    C       -1.51406        2.47096       -1.24894
| 64>    C       -2.83732        1.16909        0.87888
| 65>    C       -2.91733       -0.03068        1.67699
| 66>    C       -3.29656       -1.14096        0.81622
| 67>    C       -2.99147       -1.38385       -1.62202
| 68>    C       -2.25031       -0.74901       -2.70222
| 69>    C       -1.96738        0.61833       -2.63686
| 70>    C       -2.44353        1.40100       -1.52375
| 71>    C       -3.16361        0.80567       -0.48959
| 72>    C       -3.43391       -0.62162       -0.53423
| 73>    H        1.01079        5.70594        4.39439
| 74>    C       -0.02502        6.07921        4.37886
| 75>    H       -0.14197        6.80711        5.19798
| 76>    H        0.31794        7.60819        2.86708
| 77>    C       -0.34142        6.74847        3.05268
| 78>    O       -0.09377        5.86121        1.93801
| 79>    H       -0.70881        5.23855        4.56885
| 80>    C       -1.06593        5.01385        1.58305
| 81>    C       -0.59369        4.18199        0.36495
| 82>    O       -2.14368        4.93390        2.10853
| 83>    H       -1.38979        7.07988        3.01259
| 84>    C       -0.37576        5.20146       -0.77482
| 85>    H       -3.62271        6.46433       -2.59559
| 86>    O       -1.54600        5.77178       -1.08241
| 87>    H       -1.12736        6.33894       -3.03390
| 88>    O        0.67586        5.47844       -1.28485
| 89>    C       -1.53396        6.78416       -2.11160
| 90>    C       -2.95187        7.28288       -2.29224
| 91>    H       -2.97708        8.05869       -3.07354
| 92>    H       -3.33996        7.71875       -1.35860
| 93>    H       -0.84376        7.58709       -1.80568
| 94> *
| 95> 
| 96> 
| 97>                          ****END OF INPUT****
================================================================================

                       ****************************
                       * Single Point Calculation *
                       ****************************

---------------------------------
CARTESIAN COORDINATES (ANGSTROEM)
---------------------------------
  C      3.363850   -1.995840    0.386460
  C      3.660550   -0.572850    0.435210
  C      3.240830    0.192360    1.529930
  C      2.655790   -2.600090    1.432420
  C      3.061540   -2.347190   -0.994120
  C      3.528910   -0.044320   -0.915540
  C      2.686340    1.519350    1.319240
  C      2.492190   -0.434310    2.605630
  C      1.619450   -3.578390    1.139660
  C      2.209620   -1.800970    2.563430
  C      2.067320   -3.289520   -1.274680
  C      3.162500   -1.138140   -1.796830
  C      2.965250    1.218880   -1.112210
  C      1.582810    1.709180    2.246150
  C      2.552080    2.008330    0.021760
  C      1.465760    0.505390    3.032650
  C      1.333690   -3.919280   -0.186630
  C      0.534460   -3.385680    2.091430
  C      0.895000   -2.280440    2.965860
  C      1.137940   -3.062220   -2.371680
  C      2.259900   -0.909710   -2.839330
  C      2.009350    1.465060   -2.175270
  C      0.467250    2.477220    1.878010
  C      1.419560    2.825630   -0.343400
  C      0.201740    0.055720    3.399700
  C     -0.047190   -4.087250   -0.613750
  C     -0.793060   -3.546950    1.680450
  C     -0.084590   -1.372010    3.382640
  C     -0.167240   -3.561630   -1.965460
  C      1.232520   -1.894360   -3.138200
  C      1.680260    0.413830   -3.031670
  C      1.007260    2.433370   -1.702730
  C      0.575610    3.295830    0.669030
  C     -0.886610    1.966510    2.189290
  C     -0.980280    0.783080    2.961080
  C     -1.089940   -3.908960    0.301610
  C     -1.812550   -2.611390    2.129100
  C     -1.459570   -1.539570    2.957510
  C     -1.327090   -2.882580   -2.351260
  C      0.026720   -1.180890   -3.529210
  C      0.306920    0.247340   -3.456360
  C     -0.337140    2.274450   -2.120660
  C     -1.503750    3.040890    0.030620
  C     -1.907820    2.183830    1.143310
  C     -2.013100   -0.214790    2.716890
  C     -2.298070   -3.204600   -0.099520
  C     -2.746620   -2.406420    1.031660
  C     -2.415150   -2.700960   -1.400560
  C     -1.226870   -1.673220   -3.154530
  C     -0.665070    1.141230   -3.003150
  C     -1.514060    2.470960   -1.248940
  C     -2.837320    1.169090    0.878880
  C     -2.917330   -0.030680    1.676990
  C     -3.296560   -1.140960    0.816220
  C     -2.991470   -1.383850   -1.622020
  C     -2.250310   -0.749010   -2.702220
  C     -1.967380    0.618330   -2.636860
  C     -2.443530    1.401000   -1.523750
  C     -3.163610    0.805670   -0.489590
  C     -3.433910   -0.621620   -0.534230
  H      1.010790    5.705940    4.394390
  C     -0.025020    6.079210    4.378860
  H     -0.141970    6.807110    5.197980
  H      0.317940    7.608190    2.867080
  C     -0.341420    6.748470    3.052680
  O     -0.093770    5.861210    1.938010
  H     -0.708810    5.238550    4.568850
  C     -1.065930    5.013850    1.583050
  C     -0.593690    4.181990    0.364950
  O     -2.143680    4.933900    2.108530
  H     -1.389790    7.079880    3.012590
  C     -0.375760    5.201460   -0.774820
  H     -3.622710    6.464330   -2.595590
  O     -1.546000    5.771780   -1.082410
  H     -1.127360    6.338940   -3.033900
  O      0.675860    5.478440   -1.284850
  C     -1.533960    6.784160   -2.111600
  C     -2.951870    7.282880   -2.292240
  H     -2.977080    8.058690   -3.073540
  H     -3.339960    7.718750   -1.358600
  H     -0.843760    7.587090   -1.805680

----------------------------
CARTESIAN COORDINATES (A.U.)
----------------------------
  NO LB      ZA    FRAG     MASS         X           Y           Z
   0 C     6.0000    0    12.011    6.356755   -3.771591    0.730304
   1 C     6.0000    0    12.011    6.917437   -1.082530    0.822428
   2 C     6.0000    0    12.011    6.124281    0.363508    2.891149
   3 C     6.0000    0    12.011    5.018716   -4.913458    2.706882
   4 C     6.0000    0    12.011    5.785472   -4.435546   -1.878615
   5 C     6.0000    0    12.011    6.668673   -0.083753   -1.730120
   6 C     6.0000    0    12.011    5.076447    2.871155    2.493002
   7 C     6.0000    0    12.011    4.709557   -0.820727    4.923927
   8 C     6.0000    0    12.011    3.060317   -6.762177    2.153645
   9 C     6.0000    0    12.011    4.175577   -3.403340    4.844181
  10 C     6.0000    0    12.011    3.906669   -6.216292   -2.408796
  11 C     6.0000    0    12.011    5.976259   -2.150773   -3.395517
  12 C     6.0000    0    12.011    5.603510    2.303349   -2.101772
  13 C     6.0000    0    12.011    2.991077    3.229882    4.244608
  14 C     6.0000    0    12.011    4.822732    3.795194    0.041120
  15 C     6.0000    0    12.011    2.769885    0.955049    5.730878
  16 C     6.0000    0    12.011    2.520309   -7.406366   -0.352680
  17 C     6.0000    0    12.011    1.009983   -6.398008    3.952230
  18 C     6.0000    0    12.011    1.691305   -4.309407    5.604663
  19 C     6.0000    0    12.011    2.150395   -5.786757   -4.481826
  20 C     6.0000    0    12.011    4.270592   -1.719103   -5.365556
  21 C     6.0000    0    12.011    3.797121    2.768562   -4.110665
  22 C     6.0000    0    12.011    0.882975    4.681267    3.548925
  23 C     6.0000    0    12.011    2.682580    5.339667   -0.648932
  24 C     6.0000    0    12.011    0.381233    0.105296    6.424502
  25 C     6.0000    0    12.011   -0.089176   -7.723783   -1.159819
  26 C     6.0000    0    12.011   -1.498666   -6.702764    3.175590
  27 C     6.0000    0    12.011   -0.159852   -2.592723    6.392263
  28 C     6.0000    0    12.011   -0.316038   -6.730505   -3.714181
  29 C     6.0000    0    12.011    2.329125   -3.579822   -5.930339
  30 C     6.0000    0    12.011    3.175231    0.782025   -5.729026
  31 C     6.0000    0    12.011    1.903446    4.598403   -3.217693
  32 C     6.0000    0    12.011    1.087745    6.228216    1.264283
  33 C     6.0000    0    12.011   -1.675450    3.716165    4.137159
  34 C     6.0000    0    12.011   -1.852461    1.479807    5.595630
  35 C     6.0000    0    12.011   -2.059688   -7.386864    0.569960
  36 C     6.0000    0    12.011   -3.425223   -4.934812    4.023416
  37 C     6.0000    0    12.011   -2.758188   -2.909366    5.588884
  38 C     6.0000    0    12.011   -2.507837   -5.447287   -4.443237
  39 C     6.0000    0    12.011    0.050493   -2.231559   -6.669240
  40 C     6.0000    0    12.011    0.579995    0.467405   -6.531574
  41 C     6.0000    0    12.011   -0.637102    4.298088   -4.007467
  42 C     6.0000    0    12.011   -2.841676    5.746449    0.057863
  43 C     6.0000    0    12.011   -3.605257    4.126841    2.160543
  44 C     6.0000    0    12.011   -3.804208   -0.405894    5.134178
  45 C     6.0000    0    12.011   -4.342723   -6.055816   -0.188066
  46 C     6.0000    0    12.011   -5.190360   -4.547475    1.949555
  47 C     6.0000    0    12.011   -4.563972   -5.104075   -2.646675
  48 C     6.0000    0    12.011   -2.318448   -3.161928   -5.961198
  49 C     6.0000    0    12.011   -1.256800    2.156612   -5.675131
  50 C     6.0000    0    12.011   -2.861159    4.669438   -2.360155
  51 C     6.0000    0    12.011   -5.361758    2.209260    1.660843
  52 C     6.0000    0    12.011   -5.512955   -0.057977    3.169052
  53 C     6.0000    0    12.011   -6.229596   -2.156102    1.542432
  54 C     6.0000    0    12.011   -5.653059   -2.615098   -3.065174
  55 C     6.0000    0    12.011   -4.252470   -1.415424   -5.106456
  56 C     6.0000    0    12.011   -3.717809    1.168474   -4.982943
  57 C     6.0000    0    12.011   -4.617603    2.647506   -2.879470
  58 C     6.0000    0    12.011   -5.978356    1.522496   -0.925191
  59 C     6.0000    0    12.011   -6.489149   -1.174692   -1.009548
  60 H     1.0000    0     1.008    1.910116   10.782664    8.304194
  61 C     6.0000    0    12.011   -0.047281   11.488042    8.274846
  62 H     1.0000    0     1.008   -0.268284   12.863574    9.822759
  63 H     1.0000    0     1.008    0.600820   14.377395    5.417996
  64 C     6.0000    0    12.011   -0.645190   12.752760    5.768729
  65 O     8.0000    0    15.999   -0.177200   11.076082    3.662308
  66 H     1.0000    0     1.008   -1.339457    9.899425    8.633875
  67 C     6.0000    0    12.011   -2.014316    9.474803    2.991531
  68 C     6.0000    0    12.011   -1.121912    7.902816    0.689656
  69 O     8.0000    0    15.999   -4.050968    9.323720    3.984544
  70 H     1.0000    0     1.008   -2.626322   13.379034    5.692970
  71 C     6.0000    0    12.011   -0.710083    9.829335   -1.464198
  72 H     1.0000    0     1.008   -6.845930   12.215813   -4.904954
  73 O     8.0000    0    15.999   -2.921517   10.907084   -2.045458
  74 H     1.0000    0     1.008   -2.130402   11.978861   -5.733240
  75 O     8.0000    0    15.999    1.277190   10.352751   -2.428015
  76 C     6.0000    0    12.011   -2.898764   12.820204   -3.990346
  77 C     6.0000    0    12.011   -5.578226   13.762649   -4.331706
  78 H     1.0000    0     1.008   -5.625866   15.228717   -5.808149
  79 H     1.0000    0     1.008   -6.311610   14.586324   -2.567382
  80 H     1.0000    0     1.008   -1.594475   14.337522   -3.412241

--------------------------------
INTERNAL COORDINATES (ANGSTROEM)
--------------------------------
 C      0   0   0     0.000000000000     0.00000000     0.00000000
 C      1   0   0     1.454409843407     0.00000000     0.00000000
 C      2   1   0     1.400043963917   119.98713415     0.00000000
 C      1   2   3     1.400178327107   120.02326371     0.15486655
 C      1   2   3     1.456310164422   108.06958522   142.79819022
 C      2   1   3     1.456433525088   107.78996612   217.71073530
 C      3   2   1     1.453530837753   120.00021021   221.63273093
 C      3   2   1     1.452689790871   119.84919532   359.09174325
 C      4   1   2     1.454915771858   120.00463322   138.28925289
 C      8   3   2     1.396204211604   120.27659364     1.11235523
 C      5   1   2     1.398275062675   120.02679868   217.16399922
 C      6   2   1     1.451678526603   108.20452509   359.56918344
 C      6   2   1     1.397163528188   119.67713189   141.37301601
 C      7   3   2     1.453607938166   108.44529505   141.10157724
 C      7   3   2     1.393047572196   119.48718212     1.30722102
 C     14   7   3     1.442703474939   107.47277964     0.45084326
 C      9   4   1     1.398895969613   120.00923098     0.24234973
 C      9   4   1     1.456092914995   108.07395151   217.53350242
 C     18   9   4     1.454706971902   107.98602154     0.47441877
 C     11   5   1     1.455617214243   119.99721334   138.21775174
 C     12   6   2     1.397738628965   119.51442926   142.46006865
 C     13   6   2     1.450670867564   121.49457365   222.96598949
 C     14   7   3     1.403526492376   120.50489214   213.67124146
 C     15   7   3     1.443579809363   120.66004910   143.48648438
 C     16  14   7     1.390926084233   119.16604121   216.49087230
 C     17   9   4     1.455154627419   120.01753831   221.40106607
 C     18   9   4     1.399007478072   119.98592881   142.98473164
 C     19  18   9     1.399481047174   119.91487076   141.83150483
 C     26  17   9     1.455269154143   108.01255694   142.67136725
 C     20  11   5     1.400141159455   119.98024799   359.44007808
 C     22  13   6     1.395279793088   118.51213766   358.45853965
 C     22  13   6     1.471428787200   108.97143272   144.28093470
 C     24  15   7     1.399412072050   118.70827883    10.12301751
 C     23  14   7     1.480086768436   118.88517584   135.52065272
 C     34  23  14     1.415959193586   117.61540179     5.95266151
 C     26  17   9     1.398927738019   120.03798714   359.95420092
 C     27  18   9     1.454619949059   120.02007179   221.81747208
 C     37  27  18     1.399877180648   119.88355343     0.87242844
 C     29  26  17     1.398285580631   120.00686153   217.03118508
 C     30  20  11     1.454607129434   120.01877251   221.87589699
 C     31  22  13     1.447115500504   119.38297532   140.01494047
 C     32  22  13     1.416803589528   118.53416397   216.58745608
 C     33  24  15     2.190045602562   108.81946127   223.94420558
 C     43  33  24     1.461473039300    96.24827208   121.05622938
 C     38  37  27     1.455793767571   120.20286205   137.23744197
 C     36  26  17     1.454856138386   120.01821344   138.64398786
 C     46  36  26     1.455285747645   107.88912157   217.40254108
 C     46  36  26     1.400023591801   119.98900391   359.77401202
 C     40  30  20     1.397949147645   119.90501342   359.10252670
 C     41  31  22     1.396138673736   119.45750505     0.04228754
 C     43  33  24     1.400785599084   108.70095715   359.71677667
 C     44  43  33     1.401281821227   117.67096264   215.29343637
 C     45  38  37     1.390295074795   119.43456587     1.43850855
 C     47  46  36     1.396509007776   119.89845849   142.57185212
 C     48  46  36     1.454636733381   120.02242702   221.77430123
 C     49  40  30     1.451267685095   119.44813581   138.80966792
 C     56  49  40     1.397834035249   119.65473009   359.50174298
 C     57  56  49     1.441632763050   120.02068809   220.54697224
 C     58  57  56     1.393707257963   120.77508025     1.34918914
 C     55  48  46     1.400012432302   119.99256235   359.75720518
 H     23  14   7     4.129435418359    99.40455380   248.76900766
 C     61  23  14     1.101123984799    97.62197094   200.61824409
 H     62  61  23     1.102031436439   108.25518945   166.13615512
 H     62  61  23     2.177356234152    95.72007621   262.22258328
 C     64  62  61     1.099236757027    40.45439359   125.24732916
 O     65  64  62     1.446046347459   104.30019708   239.48302644
 H     62  61  23     1.100170077670   108.85659264    48.87617021
 C     66  65  64     1.337576404098   117.95591690   205.76716389
 C     43  33  24     1.497362668995    43.04170957   243.64268782
 O     68  66  65     1.201693095345   125.30630630     0.72983767
 H     65  64  62     1.100236089710   109.25794321   123.45743687
 C     69  43  33     1.544632065801   115.08542862   120.54686429
 H     72  69  43     3.930995844859   115.93015210    47.90582081
 O     72  69  43     1.337661454965   109.12581640    62.35394276
 H     74  72  69     2.074907982369    98.99215292   204.12747090
 O     72  69  43     1.201146596257   126.08913960   240.23812969
 C     75  74  72     1.101899132589    41.30294035   229.88725038
 C     73  72  69     1.100941247570    66.91673110   131.18731963
 H     78  73  72     1.101338453973   108.31997860   142.95387270
 H     78  73  72     1.101035946098   108.25224822   260.22336429
 H     77  75  74     1.102115997207   107.19413400   117.02449043

---------------------------
INTERNAL COORDINATES (A.U.)
---------------------------
 C      0   0   0     0.000000000000     0.00000000     0.00000000
 C      1   0   0     2.748436290519     0.00000000     0.00000000
 C      2   1   0     2.645699667252   119.98713415     0.00000000
 C      1   2   3     2.645953576884   120.02326371     0.15486655
 C      1   2   3     2.752027376804   108.06958522   142.79819022
 C      2   1   3     2.752260494678   107.78996612   217.71073530
 C      3   2   1     2.746775210563   120.00021021   221.63273093
 C      3   2   1     2.745185862289   119.84919532   359.09174325
 C      4   1   2     2.749392356734   120.00463322   138.28925289
 C      8   3   2     2.638443586958   120.27659364     1.11235523
 C      5   1   2     2.642356928348   120.02679868   217.16399922
 C      6   2   1     2.743274849774   108.20452509   359.56918344
 C      6   2   1     2.640256432579   119.67713189   141.37301601
 C      7   3   2     2.746920909228   108.44529505   141.10157724
 C      7   3   2     2.632478402974   119.48718212     1.30722102
 C     14   7   3     2.726314460091   107.47277964     0.45084326
 C      9   4   1     2.643530272415   120.00923098     0.24234973
 C      9   4   1     2.751616834885   108.07395151   217.53350242
 C     18   9   4     2.748997782000   107.98602154     0.47441877
 C     11   5   1     2.750717890740   119.99721334   138.21775174
 C     12   6   2     2.641343215546   119.51442926   142.46006865
 C     13   6   2     2.741370650155   121.49457365   222.96598949
 C     14   7   3     2.652280692293   120.50489214   213.67124146
 C     15   7   3     2.727970492154   120.66004910   143.48648438
 C     16  14   7     2.628469371728   119.16604121   216.49087230
 C     17   9   4     2.749843728331   120.01753831   221.40106607
 C     18   9   4     2.643740992863   119.98592881   142.98473164
 C     19  18   9     2.644635908773   119.91487076   141.83150483
 C     26  17   9     2.750060152473   108.01255694   142.67136725
 C     20  11   5     2.645883340201   119.98024799   359.44007808
 C     22  13   6     2.636696689131   118.51213766   358.45853965
 C     22  13   6     2.780597433375   108.97143272   144.28093470
 C     24  15   7     2.644505564678   118.70827883    10.12301751
 C     23  14   7     2.796958646785   118.88517584   135.52065272
 C     34  23  14     2.675775092685   117.61540179     5.95266151
 C     26  17   9     2.643590306003   120.03798714   359.95420092
 C     27  18   9     2.748833332660   120.02007179   221.81747208
 C     37  27  18     2.645384492551   119.88355343     0.87242844
 C     29  26  17     2.642376804403   120.00686153   217.03118508
 C     30  20  11     2.748809107079   120.01877251   221.87589699
 C     31  22  13     2.734651980106   119.38297532   140.01494047
 C     32  22  13     2.677370769765   118.53416397   216.58745608
 C     33  24  15     4.138586409640   108.81946127   223.94420558
 C     43  33  24     2.761783796386    96.24827208   121.05622938
 C     38  37  27     2.751051528180   120.20286205   137.23744197
 C     36  26  17     2.749279665804   120.01821344   138.64398786
 C     46  36  26     2.750091509649   107.88912157   217.40254108
 C     46  36  26     2.645661169533   119.98900391   359.77401202
 C     40  30  20     2.641741038197   119.90501342   359.10252670
 C     41  31  22     2.638319738336   119.45750505     0.04228754
 C     43  33  24     2.647101154609   108.70095715   359.71677667
 C     44  43  33     2.648038878561   117.67096264   215.29343637
 C     45  38  37     2.627276936703   119.43456587     1.43850855
 C     47  46  36     2.639019568251   119.89845849   142.57185212
 C     48  46  36     2.748865050431   120.02242702   221.77430123
 C     49  40  30     2.742498471839   119.44813581   138.80966792
 C     56  49  40     2.641523507294   119.65473009   359.50174298
 C     57  56  49     2.724291107853   120.02068809   220.54697224
 C     58  57  56     2.633725028409   120.77508025     1.34918914
 C     55  48  46     2.645640081136   119.99256235   359.75720518
 H     23  14   7     7.803502028414    99.40455380   248.76900766
 C     61  23  14     2.080822770762    97.62197094   200.61824409
 H     62  61  23     2.082537605842   108.25518945   166.13615512
 H     62  61  23     4.114606978533    95.72007621   262.22258328
 C     64  62  61     2.077256427121    40.45439359   125.24732916
 O     65  64  62     2.732631573655   104.30019708   239.48302644
 H     62  61  23     2.079020147531   108.85659264    48.87617021
 C     66  65  64     2.527653086941   117.95591690   205.76716389
 C     43  33  24     2.829605367558    43.04170957   243.64268782
 O     68  66  65     2.270870847226   125.30630630     0.72983767
 H     65  64  62     2.079144892208   109.25794321   123.45743687
 C     69  43  33     2.918931582037   115.08542862   120.54686429
 H     72  69  43     7.428505580366   115.93015210    47.90582081
 O     72  69  43     2.527813809787   109.12581640    62.35394276
 H     74  72  69     3.921007839765    98.99215292   204.12747090
 O     72  69  43     2.269838113618   126.08913960   240.23812969
 C     75  74  72     2.082287587798    41.30294035   229.88725038
 C     73  72  69     2.080477447444    66.91673110   131.18731963
 H     78  73  72     2.081228058766   108.31997860   142.95387270
 H     78  73  72     2.080656401728   108.25224822   260.22336429
 H     77  75  74     2.082697402535   107.19413400   117.02449043

---------------------
BASIS SET INFORMATION
---------------------
There are 3 groups of distinct atoms

 Group   1 Type C   : 7s4p1d contracted to 3s2p1d pattern {511/31/1}
 Group   2 Type H   : 4s1p contracted to 2s1p pattern {31/1}
 Group   3 Type O   : 7s4p1d contracted to 3s2p1d pattern {511/31/1}

Atom   0C    basis set group =>   1
Atom   1C    basis set group =>   1
Atom   2C    basis set group =>   1
Atom   3C    basis set group =>   1
Atom   4C    basis set group =>   1
Atom   5C    basis set group =>   1
Atom   6C    basis set group =>   1
Atom   7C    basis set group =>   1
Atom   8C    basis set group =>   1
Atom   9C    basis set group =>   1
Atom  10C    basis set group =>   1
Atom  11C    basis set group =>   1
Atom  12C    basis set group =>   1
Atom  13C    basis set group =>   1
Atom  14C    basis set group =>   1
Atom  15C    basis set group =>   1
Atom  16C    basis set group =>   1
Atom  17C    basis set group =>   1
Atom  18C    basis set group =>   1
Atom  19C    basis set group =>   1
Atom  20C    basis set group =>   1
Atom  21C    basis set group =>   1
Atom  22C    basis set group =>   1
Atom  23C    basis set group =>   1
Atom  24C    basis set group =>   1
Atom  25C    basis set group =>   1
Atom  26C    basis set group =>   1
Atom  27C    basis set group =>   1
Atom  28C    basis set group =>   1
Atom  29C    basis set group =>   1
Atom  30C    basis set group =>   1
Atom  31C    basis set group =>   1
Atom  32C    basis set group =>   1
Atom  33C    basis set group =>   1
Atom  34C    basis set group =>   1
Atom  35C    basis set group =>   1
Atom  36C    basis set group =>   1
Atom  37C    basis set group =>   1
Atom  38C    basis set group =>   1
Atom  39C    basis set group =>   1
Atom  40C    basis set group =>   1
Atom  41C    basis set group =>   1
Atom  42C    basis set group =>   1
Atom  43C    basis set group =>   1
Atom  44C    basis set group =>   1
Atom  45C    basis set group =>   1
Atom  46C    basis set group =>   1
Atom  47C    basis set group =>   1
Atom  48C    basis set group =>   1
Atom  49C    basis set group =>   1
Atom  50C    basis set group =>   1
Atom  51C    basis set group =>   1
Atom  52C    basis set group =>   1
Atom  53C    basis set group =>   1
Atom  54C    basis set group =>   1
Atom  55C    basis set group =>   1
Atom  56C    basis set group =>   1
Atom  57C    basis set group =>   1
Atom  58C    basis set group =>   1
Atom  59C    basis set group =>   1
Atom  60H    basis set group =>   2
Atom  61C    basis set group =>   1
Atom  62H    basis set group =>   2
Atom  63H    basis set group =>   2
Atom  64C    basis set group =>   1
Atom  65O    basis set group =>   3
Atom  66H    basis set group =>   2
Atom  67C    basis set group =>   1
Atom  68C    basis set group =>   1
Atom  69O    basis set group =>   3
Atom  70H    basis set group =>   2
Atom  71C    basis set group =>   1
Atom  72H    basis set group =>   2
Atom  73O    basis set group =>   3
Atom  74H    basis set group =>   2
Atom  75O    basis set group =>   3
Atom  76C    basis set group =>   1
Atom  77C    basis set group =>   1
Atom  78H    basis set group =>   2
Atom  79H    basis set group =>   2
Atom  80H    basis set group =>   2
---------------------------------
AUXILIARY/J BASIS SET INFORMATION
---------------------------------
There are 3 groups of distinct atoms

 Group   1 Type C   : 12s5p4d2f1g contracted to 6s4p3d1f1g pattern {711111/2111/211/2/1}
 Group   2 Type H   : 5s2p1d contracted to 3s1p1d pattern {311/2/1}
 Group   3 Type O   : 12s5p4d2f1g contracted to 6s4p3d1f1g pattern {711111/2111/211/2/1}

Atom   0C    basis set group =>   1
Atom   1C    basis set group =>   1
Atom   2C    basis set group =>   1
Atom   3C    basis set group =>   1
Atom   4C    basis set group =>   1
Atom   5C    basis set group =>   1
Atom   6C    basis set group =>   1
Atom   7C    basis set group =>   1
Atom   8C    basis set group =>   1
Atom   9C    basis set group =>   1
Atom  10C    basis set group =>   1
Atom  11C    basis set group =>   1
Atom  12C    basis set group =>   1
Atom  13C    basis set group =>   1
Atom  14C    basis set group =>   1
Atom  15C    basis set group =>   1
Atom  16C    basis set group =>   1
Atom  17C    basis set group =>   1
Atom  18C    basis set group =>   1
Atom  19C    basis set group =>   1
Atom  20C    basis set group =>   1
Atom  21C    basis set group =>   1
Atom  22C    basis set group =>   1
Atom  23C    basis set group =>   1
Atom  24C    basis set group =>   1
Atom  25C    basis set group =>   1
Atom  26C    basis set group =>   1
Atom  27C    basis set group =>   1
Atom  28C    basis set group =>   1
Atom  29C    basis set group =>   1
Atom  30C    basis set group =>   1
Atom  31C    basis set group =>   1
Atom  32C    basis set group =>   1
Atom  33C    basis set group =>   1
Atom  34C    basis set group =>   1
Atom  35C    basis set group =>   1
Atom  36C    basis set group =>   1
Atom  37C    basis set group =>   1
Atom  38C    basis set group =>   1
Atom  39C    basis set group =>   1
Atom  40C    basis set group =>   1
Atom  41C    basis set group =>   1
Atom  42C    basis set group =>   1
Atom  43C    basis set group =>   1
Atom  44C    basis set group =>   1
Atom  45C    basis set group =>   1
Atom  46C    basis set group =>   1
Atom  47C    basis set group =>   1
Atom  48C    basis set group =>   1
Atom  49C    basis set group =>   1
Atom  50C    basis set group =>   1
Atom  51C    basis set group =>   1
Atom  52C    basis set group =>   1
Atom  53C    basis set group =>   1
Atom  54C    basis set group =>   1
Atom  55C    basis set group =>   1
Atom  56C    basis set group =>   1
Atom  57C    basis set group =>   1
Atom  58C    basis set group =>   1
Atom  59C    basis set group =>   1
Atom  60H    basis set group =>   2
Atom  61C    basis set group =>   1
Atom  62H    basis set group =>   2
Atom  63H    basis set group =>   2
Atom  64C    basis set group =>   1
Atom  65O    basis set group =>   3
Atom  66H    basis set group =>   2
Atom  67C    basis set group =>   1
Atom  68C    basis set group =>   1
Atom  69O    basis set group =>   3
Atom  70H    basis set group =>   2
Atom  71C    basis set group =>   1
Atom  72H    basis set group =>   2
Atom  73O    basis set group =>   3
Atom  74H    basis set group =>   2
Atom  75O    basis set group =>   3
Atom  76C    basis set group =>   1
Atom  77C    basis set group =>   1
Atom  78H    basis set group =>   2
Atom  79H    basis set group =>   2
Atom  80H    basis set group =>   2


           ************************************************************
           *        Program running with 20 parallel MPI-processes    *
           *              working on a common directory               *
           ************************************************************
------------------------------------------------------------------------------
                             ORCA STARTUP CALCULATIONS
                           -- RI-GTO INTEGRALS CHOSEN --
------------------------------------------------------------------------------
------------------------------------------------------------------------------
                   ___                                                        
                  /   \      - P O W E R E D   B Y -                         
                 /     \                                                     
                 |  |  |   _    _      __       _____    __    __             
                 |  |  |  | |  | |    /  \     |  _  \  |  |  /  |          
                  \  \/   | |  | |   /    \    | | | |  |  | /  /          
                 / \  \   | |__| |  /  /\  \   | |_| |  |  |/  /          
                |  |  |   |  __  | /  /__\  \  |    /   |      \           
                |  |  |   | |  | | |   __   |  |    \   |  |\   \          
                \     /   | |  | | |  |  |  |  | |\  \  |  | \   \       
                 \___/    |_|  |_| |__|  |__|  |_| \__\ |__|  \__/        
                                                                              
                      - O R C A' S   B I G   F R I E N D -                    
                                      &                                       
                       - I N T E G R A L  F E E D E R -                       
                                                                              
 v1 FN, 2020, v2 2021, v3 2022-2024                                           
------------------------------------------------------------------------------


----------------------
SHARK INTEGRAL PACKAGE
----------------------

Number of atoms                             ...     81
Number of basis functions                   ...   1044
Number of shells                            ...    456
Maximum angular momentum                    ...      2
Integral batch strategy                     ... SHARK/LIBINT Hybrid
RI-J (if used) integral strategy            ... SPLIT-RIJ (Revised 2003 algorithm where possible)
Printlevel                                  ...      1
Contraction scheme used                     ... SEGMENTED contraction
Prescreening option                         ... SCHWARTZ
   Thresh                                   ... 2.500e-11
   Tcut                                     ... 2.500e-12
   Tpresel                                  ... 2.500e-12 
Coulomb Range Separation                    ... NOT USED
Exchange Range Separation                   ... NOT USED
Multipole approximations                    ... NOT USED
Finite Nucleus Model                        ... NOT USED
CABS basis                                  ... NOT available
Auxiliary Coulomb fitting basis             ... AVAILABLE
   # of basis functions in Aux-J            ...   3589
   # of shells in Aux-J                     ...   1115
   Maximum angular momentum in Aux-J        ...      4
Auxiliary J/K fitting basis                 ... NOT available
Auxiliary Correlation fitting basis         ... NOT available
Auxiliary 'external' fitting basis          ... NOT available

Checking pre-screening integrals            ... done (  0.0 sec) Dimension = 456
Check shell pair data                       ... done (  0.0 sec)
Shell pair information
Shell pair cut-off parameter TPreSel        ...   2.5e-12
Total number of shell pairs                 ...    104196
Shell pairs after pre-screening             ...     65281
Total number of primitive shell pairs       ...    408206
Primitive shell pairs kept                  ...    147783
          la=0 lb=0:  16467 shell pairs
          la=1 lb=0:  24125 shell pairs
          la=1 lb=1:   8644 shell pairs
          la=2 lb=0:   8376 shell pairs
          la=2 lb=1:   6642 shell pairs
          la=2 lb=2:   1027 shell pairs

Calculating one electron integrals          ... done (  0.1 sec)
Calculating RI/J V-Matrix + Cholesky decomp.... done (  0.6 sec)
Calculating Nuclear repulsion               ... done (  0.0 sec) ENN=  11262.427728177885 Eh

Diagonalization of the overlap matrix:
Smallest eigenvalue                        ... 5.816e-05
Time for diagonalization                   ...    0.102 sec
Threshold for overlap eigenvalues          ... 1.000e-07
Number of eigenvalues below threshold      ... 0
Time for construction of square roots      ...    0.095 sec
Total time needed                          ...    0.222 sec

-------------------
DFT GRID GENERATION
-------------------

General Integration Accuracy     IntAcc      ... 4.388
Radial Grid Type                 RadialGrid  ... OptM3 with GC (2021)
Angular Grid (max. ang.)         AngularGrid ... 4 (Lebedev-302)
Angular grid pruning method      GridPruning ... 4 (adaptive)
Weight generation scheme         WeightScheme... mBecke (2022)
Basis function cutoff            BFCut       ... 1.0000e-11
Integration weight cutoff        WCut        ... 1.0000e-14
Partially contracted basis set               ... off
Rotationally invariant grid construction     ... off
Angular grids for H and He will be reduced by one unit

Total number of grid points                  ...   445841
Total number of batches                      ...     7003
Average number of points per batch           ...       63
Average number of grid points per atom       ...     5504

--------------------
COSX GRID GENERATION
--------------------

GRIDX 1
-------
General Integration Accuracy     IntAcc      ... 3.816
Radial Grid Type                 RadialGrid  ... OptM3 with GC (2021)
Angular Grid (max. ang.)         AngularGrid ... 1 (Lebedev-50)
Angular grid pruning method      GridPruning ... 4 (adaptive)
Weight generation scheme         WeightScheme... mBecke (2022)
Basis function cutoff            BFCut       ... 1.0000e-11
Integration weight cutoff        WCut        ... 1.0000e-14
Partially contracted basis set               ... on
Rotationally invariant grid construction     ... off
Angular grids for H and He will be reduced by one unit

Total number of grid points                  ...    56025
Total number of batches                      ...      472
Average number of points per batch           ...      118
Average number of grid points per atom       ...      692
UseSFitting                                  ... on

GRIDX 2
-------
General Integration Accuracy     IntAcc      ... 4.020
Radial Grid Type                 RadialGrid  ... OptM3 with GC (2021)
Angular Grid (max. ang.)         AngularGrid ... 2 (Lebedev-110)
Angular grid pruning method      GridPruning ... 4 (adaptive)
Weight generation scheme         WeightScheme... mBecke (2022)
Basis function cutoff            BFCut       ... 1.0000e-11
Integration weight cutoff        WCut        ... 1.0000e-14
Partially contracted basis set               ... on
Rotationally invariant grid construction     ... off
Angular grids for H and He will be reduced by one unit

Total number of grid points                  ...   126110
Total number of batches                      ...     1036
Average number of points per batch           ...      121
Average number of grid points per atom       ...     1557
UseSFitting                                  ... on

GRIDX 3
-------
General Integration Accuracy     IntAcc      ... 4.338
Radial Grid Type                 RadialGrid  ... OptM3 with GC (2021)
Angular Grid (max. ang.)         AngularGrid ... 3 (Lebedev-194)
Angular grid pruning method      GridPruning ... 4 (adaptive)
Weight generation scheme         WeightScheme... mBecke (2022)
Basis function cutoff            BFCut       ... 1.0000e-11
Integration weight cutoff        WCut        ... 1.0000e-14
Partially contracted basis set               ... on
Rotationally invariant grid construction     ... off
Angular grids for H and He will be reduced by one unit

Total number of grid points                  ...   276138
Total number of batches                      ...     2190
Average number of points per batch           ...      126
Average number of grid points per atom       ...     3409
UseSFitting                                  ... on
Initializing property integral containers    ... done (  0.0 sec)

SHARK setup successfully completed in   7.4 seconds

Maximum memory used throughout the entire STARTUP-calculation: 156.6 MB


           ************************************************************
           *        Program running with 20 parallel MPI-processes    *
           *              working on a common directory               *
           ************************************************************
-------------------------------------------------------------------------------
                                 ORCA GUESS
                   Start orbitals & Density for SCF / CASSCF
-------------------------------------------------------------------------------

------------
SCF SETTINGS
------------
Hamiltonian:
 Density Functional     Method          .... DFT(GTOs)
 Exchange Functional    Exchange        .... B88
   X-Alpha parameter    XAlpha          ....  0.666667
   Becke's b parameter  XBeta           ....  0.004200
 Correlation Functional Correlation     .... LYP
 LDA part of GGA corr.  LDAOpt          .... VWN-5
 Gradients option       PostSCFGGA      .... off
 Hybrid DFT is turned on
   Fraction HF Exchange ScalHFX         ....  0.200000
   Scaling of DF-GGA-X  ScalDFX         ....  0.720000
   Scaling of DF-GGA-C  ScalDFC         ....  0.810000
   Scaling of DF-LDA-C  ScalLDAC        ....  1.000000
   Perturbative correction              ....  0.000000
   NL short-range parameter             ....  4.800000
 RI-approximation to the Coulomb term is turned on
   Number of AuxJ basis functions       .... 3589
   RIJ-COSX (HFX calculated with COS-X)).... on


General Settings:
 Integral files         IntName         .... c60malonicester
 Hartree-Fock type      HFTyp           .... RHF
 Total Charge           Charge          ....    0
 Multiplicity           Mult            ....    1
 Number of Electrons    NEL             ....  444
 Basis Dimension        Dim             .... 1044
 Nuclear Repulsion      ENuc            ....  11262.4277281779 Eh

Convergence Acceleration:
 AO-DIIS                CNVDIIS         .... on
   Start iteration      DIISMaxIt       ....    12
   Startup error        DIISStart       ....  0.200000
   # of expansion vecs  DIISMaxEq       ....     5
   Bias factor          DIISBfac        ....   1.050
   Max. coefficient     DIISMaxC        ....  10.000
 MO-DIIS                CNVKDIIS        .... off
 Trust-Rad. Augm. Hess. CNVTRAH         .... auto
   Auto Start mean grad. ratio tolernc. ....  1.125000
   Auto Start start iteration           ....    50
   Auto Start num. interpolation iter.  ....    10
   Max. Number of Micro iterations      ....    24
   Max. Number of Macro iterations      .... Maxiter - #DIIS iter
   Number of Davidson start vectors     ....     2
   Converg. threshold    (grad. norm)   ....   1.000e-05
   Grad. Scal. Fac. for Micro threshold ....   0.100
   Minimum threshold for Micro iter.    ....   1.000e-02
   NR start threshold (gradient norm)   ....   1.000e-04
   Initial trust radius                 ....   0.400
   Minimum AH scaling param. (alpha)    ....   1.000
   Maximum AH scaling param. (alpha)    .... 1000.000
   Quad. conv. algorithm                .... NR
   White noise on init. David. guess    .... on
   Maximum white noise                  ....   0.010
   Pseudo random numbers                .... off
   Inactive MOs                         .... canonical
   Orbital update algorithm             .... Taylor
   Preconditioner                       .... Diag
   Full preconditioner red. dimension   ....   250
 SOSCF                  CNVSOSCF        .... on
   Start iteration      SOSCFMaxIt      ....   150
   Startup grad/error   SOSCFStart      ....  0.003300
   Hessian update       SOSCFHessUp     .... L-BFGS
 Level Shifting         CNVShift        .... on
   Level shift para.    LevelShift      ....    0.2500
   Turn off err/grad.   ShiftErr        ....    0.0010
 Zerner damping         CNVZerner       .... off
 Static damping         CNVDamp         .... on
   Fraction old density DampFac         ....    0.7000
   Max. Damping (<1)    DampMax         ....    0.9800
   Min. Damping (>=0)   DampMin         ....    0.0000
   Turn off err/grad.   DampErr         ....    0.1000

SCF Procedure:
 Maximum # iterations   MaxIter         ....   125
 SCF integral mode      SCFMode         .... Direct
   Integral package                     .... SHARK and LIBINT hybrid scheme
 Reset frequency        DirectResetFreq ....    20
 Integral Threshold     Thresh          ....  2.500e-11 Eh
 Primitive CutOff       TCut            ....  2.500e-12 Eh

Convergence Tolerance:
 Convergence Check Mode ConvCheckMode   .... Total+1el-Energy
 Convergence forced     ConvForced      .... 0
 Energy Change          TolE            ....  1.000e-08 Eh
 1-El. energy change                    ....  1.000e-05 Eh
 Orbital Gradient       TolG            ....  1.000e-05
 Orbital Rotation angle TolX            ....  1.000e-05
 DIIS Error             TolErr          ....  5.000e-07

------------------------------
INITIAL GUESS: MODEL POTENTIAL
------------------------------
Loading Hartree-Fock densities                     ... done
Calculating cut-offs                               ... done
Initializing the effective Hamiltonian             ... done
Setting up the integral package (SHARK)            ... done
Starting the Coulomb interaction                   ... done (   0.7 sec)
Making the grid                                    ... done (   0.8 sec)
Mapping shells                                     ... done
Starting the XC term evaluation                    ... done (   0.3 sec)
  promolecular density results
     # of electrons  =    444.019153820
     EX              =   -380.912159248
     EC              =    -15.648927509
     EX+EC           =   -396.561086757
Transforming the Hamiltonian                       ... done (   0.1 sec)
Diagonalizing the Hamiltonian                      ... done (   0.1 sec)
Back transforming the eigenvectors                 ... done (   0.1 sec)
Now organizing SCF variables                       ... done
                      ------------------
                      INITIAL GUESS DONE (   2.2 sec)
                      ------------------
             **** ENERGY FILE WAS UPDATED (c60malonicester.en.tmp) ****
Finished Guess after   3.1 sec
Maximum memory used throughout the entire GUESS-calculation: 118.8 MB


           ************************************************************
           *        Program running with 20 parallel MPI-processes    *
           *              working on a common directory               *
           ************************************************************

-------------------------------------------------------------------------------------------
                                      ORCA LEAN-SCF
                              memory conserving SCF solver
-------------------------------------------------------------------------------------------

----------------------------------------D-I-I-S--------------------------------------------
Iteration    Energy (Eh)           Delta-E    RMSDP     MaxDP     DIISErr   Damp  Time(sec)
-------------------------------------------------------------------------------------------
               ***  Starting incremental Fock matrix formation  ***
    1    -2855.2697708027590124     0.00e+00  1.82e-03  2.85e-01  2.60e-01  0.700  15.1
Warning: op=0 Small HOMO/LUMO gap (   0.096) - skipping pre-diagonalization
         Will do a full diagonalization
    2    -2855.6519466600238957    -3.82e-01  1.21e-03  1.70e-01  9.19e-02  0.700   7.8
                               ***Turning on AO-DIIS***
    3    -2855.8093247963661270    -1.57e-01  7.81e-04  4.79e-02  3.33e-02  0.700   7.3
    4    -2855.9075647455010767    -9.82e-02  1.73e-03  4.94e-02  1.49e-02  0.000   6.9
    5    -2856.1221601319211914    -2.15e-01  2.37e-04  1.84e-02  3.85e-03  0.000   7.2
    6    -2856.1230946397718071    -9.35e-04  5.91e-05  3.90e-03  4.79e-03  0.000   6.3
                              *** Initializing SOSCF ***
---------------------------------------S-O-S-C-F--------------------------------------
Iteration    Energy (Eh)           Delta-E    RMSDP     MaxDP     MaxGrad    Time(sec)
--------------------------------------------------------------------------------------
    7    -2856.1232165661549516    -1.22e-04  1.74e-05  1.10e-03  2.21e-03     6.0
               *** Restarting incremental Fock matrix formation ***
    8    -2856.1231989108800917     1.77e-05  2.18e-05  9.93e-04  1.03e-04    14.9
    9    -2856.1231987459723314     1.65e-07  1.01e-05  1.23e-03  1.82e-04     8.7
   10    -2856.1232016812882648    -2.94e-06  8.56e-06  6.23e-04  4.78e-05     7.8
   11    -2856.1232017108741275    -2.96e-08  5.39e-06  6.19e-04  6.00e-05     7.7
   12    -2856.1232018622122268    -1.51e-07  2.76e-06  1.19e-04  1.75e-05     6.9
   13    -2856.1232016477315483     2.14e-07  1.97e-06  8.91e-05  2.96e-05     6.6
   14    -2856.1232019482595206    -3.01e-07  7.03e-07  3.45e-05  3.39e-06     5.9
   15    -2856.1232020862844365    -1.38e-07  3.56e-07  3.59e-05  6.54e-06     5.4
   16    -2856.1232021656032884    -7.93e-08  4.02e-07  2.00e-05  1.89e-06     4.7
                  *** Gradient check signals convergence ***

               *****************************************************
               *                     SUCCESS                       *
               *           SCF CONVERGED AFTER  16 CYCLES          *
               *****************************************************

Recomputing exchange energy using gridx3       ... done (   23.278 sec)
Old exchange energy                            :    -76.713937492 Eh
New exchange energy                            :    -76.713926651 Eh
Exchange energy change after final integration :      0.000010841 Eh
Total energy after final integration           :  -2856.123191325 Eh
             **** ENERGY FILE WAS UPDATED (c60malonicester.en.tmp) ****

----------------
TOTAL SCF ENERGY
----------------

Total Energy       :      -2856.12319132468247 Eh          -77719.06320 eV

Components:
Nuclear Repulsion  :      11262.42772817788500 Eh          306466.23893 eV
Electronic Energy  :     -14118.55093034348829 Eh         -384185.30242 eV
One Electron Energy:     -26317.23574745775841 Eh         -716128.39195 eV
Two Electron Energy:      12198.68481711427012 Eh          331943.08953 eV

Virial components:
Potential Energy   :      -5684.30835143936929 Eh         -154677.89391 eV
Kinetic Energy     :       2828.18516011468728 Eh           76958.83072 eV
Virial Ratio       :          2.00987843073502

DFT components:
N(Alpha)           :      221.999640462607 electrons
N(Beta)            :      221.999640462607 electrons
N(Total)           :      443.999280925214 electrons
E(X)               :     -305.049337234980 Eh       
E(C)               :      -18.291099100097 Eh       
E(XC)              :     -323.340436335076 Eh       

---------------
SCF CONVERGENCE
---------------

  Last Energy change         ...    7.9319e-08  Tolerance :   1.0000e-08
  Last MAX-Density change    ...    1.9969e-05  Tolerance :   1.0000e-07
  Last RMS-Density change    ...    4.0183e-07  Tolerance :   5.0000e-09
  Last DIIS Error            ...    2.2117e-03  Tolerance :   5.0000e-07
  Last Orbital Gradient      ...    1.8855e-06  Tolerance :   1.0000e-05
  Last Orbital Rotation      ...    7.6977e-06  Tolerance :   1.0000e-05


----------------
ORBITAL ENERGIES
----------------

  NO   OCC          E(Eh)            E(eV) 
   0   2.0000     -19.194913      -522.3201 
   1   2.0000     -19.193690      -522.2869 
   2   2.0000     -19.142480      -520.8934 
   3   2.0000     -19.141055      -520.8546 
   4   2.0000     -10.336060      -281.2585 
   5   2.0000     -10.335001      -281.2297 
   6   2.0000     -10.258167      -279.1389 
   7   2.0000     -10.257341      -279.1164 
   8   2.0000     -10.249530      -278.9039 
   9   2.0000     -10.245221      -278.7866 
  10   2.0000     -10.244869      -278.7771 
  11   2.0000     -10.241618      -278.6886 
  12   2.0000     -10.238609      -278.6067 
  13   2.0000     -10.237789      -278.5844 
  14   2.0000     -10.237302      -278.5711 
  15   2.0000     -10.236538      -278.5504 
  16   2.0000     -10.229721      -278.3649 
  17   2.0000     -10.229578      -278.3610 
  18   2.0000     -10.228501      -278.3317 
  19   2.0000     -10.227603      -278.3072 
  20   2.0000     -10.227589      -278.3069 
  21   2.0000     -10.227586      -278.3068 
  22   2.0000     -10.227485      -278.3040 
  23   2.0000     -10.227471      -278.3036 
  24   2.0000     -10.227460      -278.3033 
  25   2.0000     -10.227438      -278.3027 
  26   2.0000     -10.227429      -278.3025 
  27   2.0000     -10.227284      -278.2986 
  28   2.0000     -10.227213      -278.2966 
  29   2.0000     -10.227192      -278.2960 
  30   2.0000     -10.227172      -278.2955 
  31   2.0000     -10.227165      -278.2953 
  32   2.0000     -10.227097      -278.2934 
  33   2.0000     -10.227054      -278.2923 
  34   2.0000     -10.227032      -278.2917 
  35   2.0000     -10.227016      -278.2912 
  36   2.0000     -10.226997      -278.2907 
  37   2.0000     -10.226974      -278.2901 
  38   2.0000     -10.226941      -278.2892 
  39   2.0000     -10.226851      -278.2868 
  40   2.0000     -10.226786      -278.2850 
  41   2.0000     -10.226785      -278.2850 
  42   2.0000     -10.226724      -278.2833 
  43   2.0000     -10.226712      -278.2830 
  44   2.0000     -10.226640      -278.2810 
  45   2.0000     -10.226565      -278.2790 
  46   2.0000     -10.226436      -278.2755 
  47   2.0000     -10.226412      -278.2748 
  48   2.0000     -10.226280      -278.2712 
  49   2.0000     -10.226241      -278.2702 
  50   2.0000     -10.226220      -278.2696 
  51   2.0000     -10.226138      -278.2674 
  52   2.0000     -10.226091      -278.2661 
  53   2.0000     -10.226046      -278.2649 
  54   2.0000     -10.226027      -278.2643 
  55   2.0000     -10.225800      -278.2582 
  56   2.0000     -10.225580      -278.2522 
  57   2.0000     -10.225144      -278.2403 
  58   2.0000     -10.225118      -278.2396 
  59   2.0000     -10.224996      -278.2363 
  60   2.0000     -10.224800      -278.2310 
  61   2.0000     -10.224794      -278.2308 
  62   2.0000     -10.224380      -278.2195 
  63   2.0000     -10.224266      -278.2164 
  64   2.0000     -10.224143      -278.2131 
  65   2.0000     -10.223546      -278.1968 
  66   2.0000     -10.222756      -278.1753 
  67   2.0000     -10.222341      -278.1640 
  68   2.0000     -10.221702      -278.1466 
  69   2.0000     -10.197134      -277.4781 
  70   2.0000     -10.195747      -277.4404 
  71   2.0000      -1.118829       -30.4449 
  72   2.0000      -1.110321       -30.2134 
  73   2.0000      -1.028172       -27.9780 
  74   2.0000      -1.025730       -27.9115 
  75   2.0000      -0.960922       -26.1480 
  76   2.0000      -0.942905       -25.6578 
  77   2.0000      -0.941058       -25.6075 
  78   2.0000      -0.940971       -25.6051 
  79   2.0000      -0.908266       -24.7152 
  80   2.0000      -0.906542       -24.6683 
  81   2.0000      -0.904541       -24.6138 
  82   2.0000      -0.903981       -24.5986 
  83   2.0000      -0.901430       -24.5292 
  84   2.0000      -0.871507       -23.7149 
  85   2.0000      -0.865705       -23.5570 
  86   2.0000      -0.864462       -23.5232 
  87   2.0000      -0.838868       -22.8268 
  88   2.0000      -0.838535       -22.8177 
  89   2.0000      -0.832481       -22.6530 
  90   2.0000      -0.832073       -22.6419 
  91   2.0000      -0.811792       -22.0900 
  92   2.0000      -0.790316       -21.5056 
  93   2.0000      -0.783542       -21.3213 
  94   2.0000      -0.782785       -21.3007 
  95   2.0000      -0.782561       -21.2946 
  96   2.0000      -0.781495       -21.2656 
  97   2.0000      -0.778730       -21.1903 
  98   2.0000      -0.770175       -20.9575 
  99   2.0000      -0.769166       -20.9301 
 100   2.0000      -0.765666       -20.8348 
 101   2.0000      -0.764833       -20.8122 
 102   2.0000      -0.738436       -20.0939 
 103   2.0000      -0.719059       -19.5666 
 104   2.0000      -0.710958       -19.3461 
 105   2.0000      -0.708491       -19.2790 
 106   2.0000      -0.707456       -19.2509 
 107   2.0000      -0.705881       -19.2080 
 108   2.0000      -0.699572       -19.0363 
 109   2.0000      -0.697262       -18.9735 
 110   2.0000      -0.691381       -18.8134 
 111   2.0000      -0.672004       -18.2861 
 112   2.0000      -0.662112       -18.0170 
 113   2.0000      -0.660734       -17.9795 
 114   2.0000      -0.654397       -17.8070 
 115   2.0000      -0.640494       -17.4287 
 116   2.0000      -0.631834       -17.1931 
 117   2.0000      -0.622086       -16.9278 
 118   2.0000      -0.620425       -16.8826 
 119   2.0000      -0.619394       -16.8546 
 120   2.0000      -0.618564       -16.8320 
 121   2.0000      -0.617212       -16.7952 
 122   2.0000      -0.613510       -16.6945 
 123   2.0000      -0.605864       -16.4864 
 124   2.0000      -0.597868       -16.2688 
 125   2.0000      -0.578770       -15.7491 
 126   2.0000      -0.571426       -15.5493 
 127   2.0000      -0.561706       -15.2848 
 128   2.0000      -0.555693       -15.1212 
 129   2.0000      -0.553822       -15.0703 
 130   2.0000      -0.550480       -14.9793 
 131   2.0000      -0.541628       -14.7384 
 132   2.0000      -0.537960       -14.6386 
 133   2.0000      -0.532761       -14.4972 
 134   2.0000      -0.530841       -14.4449 
 135   2.0000      -0.527759       -14.3611 
 136   2.0000      -0.526407       -14.3243 
 137   2.0000      -0.517065       -14.0701 
 138   2.0000      -0.516075       -14.0431 
 139   2.0000      -0.510676       -13.8962 
 140   2.0000      -0.507935       -13.8216 
 141   2.0000      -0.500163       -13.6101 
 142   2.0000      -0.494744       -13.4627 
 143   2.0000      -0.491254       -13.3677 
 144   2.0000      -0.488110       -13.2821 
 145   2.0000      -0.486922       -13.2498 
 146   2.0000      -0.480714       -13.0809 
 147   2.0000      -0.476808       -12.9746 
 148   2.0000      -0.474239       -12.9047 
 149   2.0000      -0.469838       -12.7850 
 150   2.0000      -0.465849       -12.6764 
 151   2.0000      -0.465473       -12.6662 
 152   2.0000      -0.462820       -12.5940 
 153   2.0000      -0.459703       -12.5092 
 154   2.0000      -0.457029       -12.4364 
 155   2.0000      -0.453881       -12.3507 
 156   2.0000      -0.453278       -12.3343 
 157   2.0000      -0.450180       -12.2500 
 158   2.0000      -0.449657       -12.2358 
 159   2.0000      -0.447208       -12.1691 
 160   2.0000      -0.446171       -12.1409 
 161   2.0000      -0.444269       -12.0892 
 162   2.0000      -0.437138       -11.8951 
 163   2.0000      -0.435871       -11.8607 
 164   2.0000      -0.432346       -11.7647 
 165   2.0000      -0.431158       -11.7324 
 166   2.0000      -0.428673       -11.6648 
 167   2.0000      -0.427038       -11.6203 
 168   2.0000      -0.421747       -11.4763 
 169   2.0000      -0.420019       -11.4293 
 170   2.0000      -0.418699       -11.3934 
 171   2.0000      -0.414015       -11.2659 
 172   2.0000      -0.413717       -11.2578 
 173   2.0000      -0.412568       -11.2266 
 174   2.0000      -0.410579       -11.1724 
 175   2.0000      -0.410093       -11.1592 
 176   2.0000      -0.407882       -11.0990 
 177   2.0000      -0.406289       -11.0557 
 178   2.0000      -0.404336       -11.0026 
 179   2.0000      -0.404091       -10.9959 
 180   2.0000      -0.402715       -10.9584 
 181   2.0000      -0.398974       -10.8566 
 182   2.0000      -0.392405       -10.6779 
 183   2.0000      -0.384779       -10.4704 
 184   2.0000      -0.375188       -10.2094 
 185   2.0000      -0.373256       -10.1568 
 186   2.0000      -0.369901       -10.0655 
 187   2.0000      -0.367010        -9.9868 
 188   2.0000      -0.364775        -9.9260 
 189   2.0000      -0.361699        -9.8423 
 190   2.0000      -0.361119        -9.8266 
 191   2.0000      -0.358901        -9.7662 
 192   2.0000      -0.357274        -9.7219 
 193   2.0000      -0.355420        -9.6715 
 194   2.0000      -0.354810        -9.6549 
 195   2.0000      -0.354390        -9.6434 
 196   2.0000      -0.353049        -9.6070 
 197   2.0000      -0.352362        -9.5883 
 198   2.0000      -0.350845        -9.5470 
 199   2.0000      -0.347638        -9.4597 
 200   2.0000      -0.339687        -9.2434 
 201   2.0000      -0.339631        -9.2418 
 202   2.0000      -0.333738        -9.0815 
 203   2.0000      -0.332933        -9.0596 
 204   2.0000      -0.322456        -8.7745 
 205   2.0000      -0.320591        -8.7237 
 206   2.0000      -0.307009        -8.3541 
 207   2.0000      -0.288273        -7.8443 
 208   2.0000      -0.272857        -7.4248 
 209   2.0000      -0.272556        -7.4166 
 210   2.0000      -0.272418        -7.4129 
 211   2.0000      -0.272251        -7.4083 
 212   2.0000      -0.271686        -7.3930 
 213   2.0000      -0.270436        -7.3589 
 214   2.0000      -0.269704        -7.3390 
 215   2.0000      -0.265849        -7.2341 
 216   2.0000      -0.263854        -7.1798 
 217   2.0000      -0.222828        -6.0635 
 218   2.0000      -0.222562        -6.0562 
 219   2.0000      -0.222326        -6.0498 
 220   2.0000      -0.221561        -6.0290 
 221   2.0000      -0.221057        -6.0153 
 222   0.0000      -0.123304        -3.3553 
 223   0.0000      -0.122063        -3.3215 
 224   0.0000      -0.121982        -3.3193 
 225   0.0000      -0.082615        -2.2481 
 226   0.0000      -0.081365        -2.2141 
 227   0.0000      -0.078640        -2.1399 
 228   0.0000      -0.052122        -1.4183 
 229   0.0000      -0.040731        -1.1083 
 230   0.0000      -0.037692        -1.0257 
 231   0.0000      -0.037595        -1.0230 
 232   0.0000      -0.036925        -1.0048 
*Only the first 10 virtual orbitals were printed.

                    ********************************
                    * MULLIKEN POPULATION ANALYSIS *
                    ********************************

-----------------------
MULLIKEN ATOMIC CHARGES
-----------------------
   0 C :    0.000222
   1 C :   -0.003028
   2 C :    0.003843
   3 C :   -0.001190
   4 C :   -0.001159
   5 C :   -0.001764
   6 C :    0.009541
   7 C :    0.004057
   8 C :   -0.003013
   9 C :   -0.004230
  10 C :   -0.000433
  11 C :   -0.009950
  12 C :    0.022231
  13 C :   -0.030599
  14 C :   -0.009986
  15 C :    0.005076
  16 C :    0.000237
  17 C :    0.000360
  18 C :   -0.001806
  19 C :   -0.000901
  20 C :    0.007914
  21 C :   -0.010223
  22 C :    0.005135
  23 C :    0.024482
  24 C :   -0.013013
  25 C :   -0.002083
  26 C :   -0.002529
  27 C :    0.007212
  28 C :   -0.000815
  29 C :    0.001732
  30 C :   -0.011687
  31 C :    0.035026
  32 C :   -0.008197
  33 C :    0.048566
  34 C :   -0.033380
  35 C :   -0.000264
  36 C :    0.002164
  37 C :    0.001558
  38 C :   -0.000739
  39 C :    0.004271
  40 C :   -0.007351
  41 C :   -0.002686
  42 C :   -0.000769
  43 C :    0.059719
  44 C :   -0.006904
  45 C :   -0.003351
  46 C :   -0.004325
  47 C :    0.001001
  48 C :   -0.009671
  49 C :   -0.007107
  50 C :   -0.011886
  51 C :   -0.033377
  52 C :    0.002601
  53 C :    0.005135
  54 C :   -0.002465
  55 C :   -0.000331
  56 C :    0.015990
  57 C :   -0.002459
  58 C :    0.008791
  59 C :    0.002207
  60 H :    0.032918
  61 C :   -0.031774
  62 H :    0.025405
  63 H :    0.024899
  64 C :    0.189183
  65 O :   -0.306000
  66 H :    0.039267
  67 C :    0.234159
  68 C :   -0.161579
  69 O :   -0.174115
  70 H :    0.028741
  71 C :    0.235306
  72 H :    0.032528
  73 O :   -0.308285
  74 H :    0.026631
  75 O :   -0.176594
  76 C :    0.177544
  77 C :    0.000201
  78 H :    0.021981
  79 H :    0.030120
  80 H :    0.024066
Sum of atomic charges:   -0.0000000

--------------------------------
MULLIKEN REDUCED ORBITAL CHARGES
--------------------------------
  0 C s       :     3.118463  s :     3.118463
      pz      :     0.922157  p :     2.837763
      px      :     0.981416
      py      :     0.934190
      dz2     :     0.011510  d :     0.043552
      dxz     :     0.008295
      dyz     :     0.010416
      dx2y2   :     0.007384
      dxy     :     0.005947

  1 C s       :     3.119721  s :     3.119721
      pz      :     0.921527  p :     2.839777
      px      :     0.996074
      py      :     0.922176
      dz2     :     0.011419  d :     0.043530
      dxz     :     0.007187
      dyz     :     0.011855
      dx2y2   :     0.006162
      dxy     :     0.006907

  2 C s       :     3.116173  s :     3.116173
      pz      :     0.935580  p :     2.836331
      px      :     0.968926
      py      :     0.931825
      dz2     :     0.009542  d :     0.043653
      dxz     :     0.007387
      dyz     :     0.010788
      dx2y2   :     0.007260
      dxy     :     0.008676

  3 C s       :     3.117948  s :     3.117948
      pz      :     0.935712  p :     2.839728
      px      :     0.953280
      py      :     0.950735
      dz2     :     0.009496  d :     0.043515
      dxz     :     0.008693
      dyz     :     0.009726
      dx2y2   :     0.007279
      dxy     :     0.008320

  4 C s       :     3.118665  s :     3.118665
      pz      :     0.930328  p :     2.838904
      px      :     0.972407
      py      :     0.936169
      dz2     :     0.010063  d :     0.043590
      dxz     :     0.007102
      dyz     :     0.011128
      dx2y2   :     0.008160
      dxy     :     0.007136

  5 C s       :     3.113871  s :     3.113871
      pz      :     0.927701  p :     2.844171
      px      :     0.992950
      py      :     0.923520
      dz2     :     0.009798  d :     0.043722
      dxz     :     0.005893
      dyz     :     0.012856
      dx2y2   :     0.006898
      dxy     :     0.008277

  6 C s       :     3.091980  s :     3.091980
      pz      :     0.939918  p :     2.854128
      px      :     0.970369
      py      :     0.943840
      dz2     :     0.010508  d :     0.044351
      dxz     :     0.009741
      dyz     :     0.009150
      dx2y2   :     0.008585
      dxy     :     0.006368

  7 C s       :     3.114156  s :     3.114156
      pz      :     0.962889  p :     2.837992
      px      :     0.956531
      py      :     0.918572
      dz2     :     0.007450  d :     0.043796
      dxz     :     0.005371
      dyz     :     0.009873
      dx2y2   :     0.009581
      dxy     :     0.011521

  8 C s       :     3.119535  s :     3.119535
[...]
 36 C      5.9978     6.0000     0.0022     3.9896     3.9896    -0.0000
 37 C      5.9984     6.0000     0.0016     3.9911     3.9911    -0.0000
 38 C      6.0007     6.0000    -0.0007     3.9927     3.9927    -0.0000
 39 C      5.9957     6.0000     0.0043     3.9881     3.9881    -0.0000
 40 C      6.0074     6.0000    -0.0074     3.9802     3.9802     0.0000
 41 C      6.0027     6.0000    -0.0027     3.9608     3.9608     0.0000
 42 C      6.0008     6.0000    -0.0008     3.9522     3.9522    -0.0000
 43 C      5.9403     6.0000     0.0597     3.9562     3.9562    -0.0000
 44 C      6.0069     6.0000    -0.0069     3.9837     3.9837     0.0000
 45 C      6.0034     6.0000    -0.0034     3.9921     3.9921     0.0000
 46 C      6.0043     6.0000    -0.0043     3.9965     3.9965     0.0000
 47 C      5.9990     6.0000     0.0010     3.9895     3.9895     0.0000
 48 C      6.0097     6.0000    -0.0097     3.9990     3.9990    -0.0000
 49 C      6.0071     6.0000    -0.0071     3.9888     3.9888    -0.0000
 50 C      6.0119     6.0000    -0.0119     3.9827     3.9827     0.0000
 51 C      6.0334     6.0000    -0.0334     3.9746     3.9746    -0.0000
 52 C      5.9974     6.0000     0.0026     3.9618     3.9618    -0.0000
 53 C      5.9949     6.0000     0.0051     3.9882     3.9882    -0.0000
 54 C      6.0025     6.0000    -0.0025     3.9952     3.9952    -0.0000
 55 C      6.0003     6.0000    -0.0003     3.9868     3.9868    -0.0000
 56 C      5.9840     6.0000     0.0160     3.9678     3.9678    -0.0000
 57 C      6.0025     6.0000    -0.0025     3.9619     3.9619    -0.0000
 58 C      5.9912     6.0000     0.0088     3.9950     3.9950    -0.0000
 59 C      5.9978     6.0000     0.0022     3.9971     3.9971    -0.0000
 60 H      0.9671     1.0000     0.0329     0.9908     0.9908     0.0000
 61 C      6.0318     6.0000    -0.0318     4.0308     4.0308     0.0000
 62 H      0.9746     1.0000     0.0254     0.9892     0.9892     0.0000
 63 H      0.9751     1.0000     0.0249     0.9807     0.9807     0.0000
 64 C      5.8108     6.0000     0.1892     4.0191     4.0191    -0.0000
 65 O      8.3060     8.0000    -0.3060     2.2214     2.2214    -0.0000
 66 H      0.9607     1.0000     0.0393     1.0016     1.0016     0.0000
 67 C      5.7658     6.0000     0.2342     4.3164     4.3164    -0.0000
 68 C      6.1616     6.0000    -0.1616     3.4640     3.4640    -0.0000
 69 O      8.1741     8.0000    -0.1741     2.3268     2.3268    -0.0000
 70 H      0.9713     1.0000     0.0287     1.0025     1.0025     0.0000
 71 C      5.7647     6.0000     0.2353     4.3418     4.3418    -0.0000
 72 H      0.9675     1.0000     0.0325     0.9922     0.9922     0.0000
 73 O      8.3083     8.0000    -0.3083     2.2105     2.2105    -0.0000
 74 H      0.9734     1.0000     0.0266     0.9899     0.9899    -0.0000
 75 O      8.1766     8.0000    -0.1766     2.3206     2.3206    -0.0000
 76 C      5.8225     6.0000     0.1775     4.0028     4.0028     0.0000
 77 C      5.9998     6.0000     0.0002     4.0048     4.0048    -0.0000
 78 H      0.9780     1.0000     0.0220     0.9883     0.9883     0.0000
 79 H      0.9699     1.0000     0.0301     0.9919     0.9919     0.0000
 80 H      0.9759     1.0000     0.0241     0.9891     0.9891     0.0000

  Mayer bond orders larger than 0.100000
B(  0-C ,  1-C ) :   1.1921 B(  0-C ,  3-C ) :   1.4322 B(  0-C ,  4-C ) :   1.1877 
B(  1-C ,  2-C ) :   1.4331 B(  1-C ,  5-C ) :   1.1928 B(  2-C ,  6-C ) :   1.1969 
B(  2-C ,  7-C ) :   1.1921 B(  3-C ,  8-C ) :   1.1890 B(  3-C ,  9-C ) :   1.1895 
B(  4-C , 10-C ) :   1.4350 B(  4-C , 11-C ) :   1.1893 B(  5-C , 11-C ) :   1.1899 
B(  5-C , 12-C ) :   1.4306 B(  6-C , 13-C ) :   1.1907 B(  6-C , 14-C ) :   1.4261 
B(  7-C ,  9-C ) :   1.4411 B(  7-C , 15-C ) :   1.1809 B(  8-C , 16-C ) :   1.4352 
B(  8-C , 17-C ) :   1.1872 B(  9-C , 18-C ) :   1.1852 B( 10-C , 16-C ) :   1.1881 
B( 10-C , 19-C ) :   1.1898 B( 11-C , 20-C ) :   1.4368 B( 12-C , 14-C ) :   1.1747 
B( 12-C , 21-C ) :   1.1884 B( 13-C , 15-C ) :   1.1746 B( 13-C , 22-C ) :   1.4199 
B( 14-C , 23-C ) :   1.1855 B( 15-C , 24-C ) :   1.4298 B( 16-C , 25-C ) :   1.1881 
B( 17-C , 18-C ) :   1.1921 B( 17-C , 26-C ) :   1.4314 B( 18-C , 27-C ) :   1.4384 
B( 19-C , 28-C ) :   1.1883 B( 19-C , 29-C ) :   1.4338 B( 20-C , 29-C ) :   1.1885 
B( 20-C , 30-C ) :   1.1889 B( 21-C , 30-C ) :   1.4255 B( 21-C , 31-C ) :   1.1927 
B( 22-C , 32-C ) :   1.1419 B( 22-C , 33-C ) :   1.1865 B( 23-C , 31-C ) :   1.1637 
B( 23-C , 32-C ) :   1.4739 B( 24-C , 27-C ) :   1.1847 B( 24-C , 34-C ) :   1.1873 
B( 25-C , 28-C ) :   1.1888 B( 25-C , 35-C ) :   1.4347 B( 26-C , 35-C ) :   1.1874 
B( 26-C , 36-C ) :   1.1918 B( 27-C , 37-C ) :   1.1882 B( 28-C , 38-C ) :   1.4354 
B( 29-C , 39-C ) :   1.1889 B( 30-C , 40-C ) :   1.1824 B( 31-C , 41-C ) :   1.4154 
B( 32-C , 42-C ) :   0.2124 B( 32-C , 68-C ) :   0.9338 B( 33-C , 34-C ) :   1.4130 
B( 33-C , 43-C ) :   1.1791 B( 34-C , 44-C ) :   1.1827 B( 35-C , 45-C ) :   1.1883 
B( 36-C , 37-C ) :   1.4373 B( 36-C , 46-C ) :   1.1861 B( 37-C , 44-C ) :   1.1874 
B( 38-C , 47-C ) :   1.1888 B( 38-C , 48-C ) :   1.1886 B( 39-C , 40-C ) :   1.1904 
B( 39-C , 48-C ) :   1.4354 B( 40-C , 49-C ) :   1.4273 B( 41-C , 49-C ) :   1.1853 
B( 41-C , 50-C ) :   1.1689 B( 42-C , 43-C ) :   1.1569 B( 42-C , 50-C ) :   1.4543 
B( 42-C , 68-C ) :   0.9303 B( 43-C , 51-C ) :   1.4271 B( 44-C , 52-C ) :   1.4336 
B( 45-C , 46-C ) :   1.1894 B( 45-C , 47-C ) :   1.4328 B( 46-C , 53-C ) :   1.4409 
B( 47-C , 54-C ) :   1.1901 B( 48-C , 55-C ) :   1.1916 B( 49-C , 56-C ) :   1.1920 
B( 50-C , 57-C ) :   1.1800 B( 51-C , 52-C ) :   1.1712 B( 51-C , 58-C ) :   1.1899 
B( 52-C , 53-C ) :   1.1815 B( 53-C , 59-C ) :   1.1902 B( 54-C , 55-C ) :   1.1945 
B( 54-C , 59-C ) :   1.4327 B( 55-C , 56-C ) :   1.4270 B( 56-C , 57-C ) :   1.1770 
B( 57-C , 58-C ) :   1.4270 B( 58-C , 59-C ) :   1.1990 B( 60-H , 61-C ) :   0.9654 
B( 61-C , 62-H ) :   0.9600 B( 61-C , 64-C ) :   1.1299 B( 61-C , 66-H ) :   0.9655 
B( 63-H , 64-C ) :   0.9566 B( 64-C , 65-O ) :   0.8843 B( 64-C , 70-H ) :   0.9426 
B( 65-O , 67-C ) :   1.2371 B( 67-C , 68-C ) :   0.8508 B( 67-C , 69-O ) :   2.1257 
B( 68-C , 71-C ) :   0.8636 B( 71-C , 73-O ) :   1.2326 B( 71-C , 75-O ) :   2.1266 
B( 72-H , 77-C ) :   0.9669 B( 73-O , 76-C ) :   0.8793 B( 74-H , 76-C ) :   0.9548 
B( 76-C , 77-C ) :   1.1084 B( 76-C , 80-H ) :   0.9549 B( 77-C , 78-H ) :   0.9575 
B( 77-C , 79-H ) :   0.9667 

Environment variable NBOEXE for nbo6.exe or nbo5.exe not set! Skipping NBO-Analysis

-------------------------
CHELPG CHARGES GENERATION
-------------------------
Grid spacing                       ...     0.300000
Point Cut-Off                      ...     2.800000
Van-der-Waals Radii                ...        COSMO
Total charge                       ...            0
Dipole moment constraint           ...        FALSE


Number of points X direction       ...           42
Number of points Y direction       ...           59
Number of points Z direction       ...           47
Maximum number of possible points  ...       116466
Final number of points             ...        24777


Grid generated                     ...   0.0 sec
Potential calculated               ...   2.2 sec
RespFile stored                    ... ok
Charges calculated                 ...   1.7 sec
CHELPG Charges            
--------------------------------
  0   C   :      -0.016004
  1   C   :       0.010552
  2   C   :       0.007348
  3   C   :       0.001439
  4   C   :       0.018882
  5   C   :      -0.027389
  6   C   :       0.052733
  7   C   :      -0.013606
  8   C   :       0.008566
  9   C   :      -0.002356
 10   C   :      -0.012698
 11   C   :      -0.015812
 12   C   :       0.135112
 13   C   :      -0.108891
 14   C   :      -0.253306
 15   C   :       0.022911
 16   C   :      -0.007978
 17   C   :      -0.014585
 18   C   :      -0.001009
 19   C   :       0.022310
 20   C   :      -0.000708
 21   C   :      -0.158616
 22   C   :       0.024358
 23   C   :       0.303585
 24   C   :       0.019150
 25   C   :       0.013581
 26   C   :       0.015852
 27   C   :      -0.004814
 28   C   :      -0.022222
 29   C   :      -0.024814
 30   C   :       0.055914
 31   C   :       0.053622
 32   C   :       0.422299
 33   C   :       0.167667
 34   C   :      -0.119969
 35   C   :      -0.011628
 36   C   :      -0.021114
 37   C   :       0.022658
 38   C   :       0.015530
 39   C   :       0.016403
 40   C   :      -0.004403
 41   C   :       0.094595
 42   C   :       0.585460
 43   C   :       0.083388
 44   C   :      -0.008716
 45   C   :       0.002619
 46   C   :      -0.004961
 47   C   :      -0.002567
 48   C   :      -0.011703
 49   C   :      -0.101339
 50   C   :      -0.049055
 51   C   :      -0.122556
 52   C   :       0.041109
 53   C   :      -0.004490
 54   C   :      -0.006141
 55   C   :      -0.028883
 56   C   :       0.089412
 57   C   :      -0.087330
 58   C   :       0.003823
 59   C   :       0.015538
 60   H   :       0.055380
 61   C   :      -0.189554
 62   H   :       0.075072
 63   H   :       0.060962
 64   C   :       0.065106
 65   O   :      -0.157201
 66   H   :       0.049429
 67   C   :       0.920273
 68   C   :      -1.933013
 69   O   :      -0.477094
 70   H   :       0.059587
 71   C   :       0.902674
 72   H   :       0.082006
 73   O   :      -0.192236
 74   H   :       0.023750
 75   O   :      -0.517957
 76   C   :       0.190098
 77   C   :      -0.286657
 78   H   :       0.080451
 79   H   :       0.089610
 80   H   :       0.042562
--------------------------------
Total charge:    -0.000000
--------------------------------

CHELPG charges calculated...

Timings:
Grid generation                 ...        0.024 sec (=   0.000 min)
Potential calculation           ...        2.160 sec (=   0.036 min)
Fit to the potential            ...        1.655 sec (=   0.028 min)
------------------------------------------------------------------------------

-------
TIMINGS
-------

Total SCF time: 0 days 0 hours 2 min 34 sec 

Total time                  ....     154.285 sec
Sum of individual times     ....     153.980 sec  ( 99.8%)

SCF preparation             ....       1.065 sec  (  0.7%)
Fock matrix formation       ....     140.308 sec  ( 90.9%)
  Startup                   ....       0.465 sec  (  0.3% of F)
  Split-RI-J                ....      21.966 sec  ( 15.7% of F)
  Chain of spheres X        ....     102.279 sec  ( 72.9% of F)
  XC integration            ....      13.806 sec  (  9.8% of F)
    XC Preparation          ....       0.000 sec  (  0.0% of XC)
    Basis function eval.    ....       4.156 sec  ( 30.1% of XC)
    Density eval.           ....       4.148 sec  ( 30.0% of XC)
    XC-Functional eval.     ....       0.311 sec  (  2.3% of XC)
    XC-Potential eval.      ....       3.033 sec  ( 22.0% of XC)
Diagonalization             ....       0.000 sec  (  0.0%)
Density matrix formation    ....       1.663 sec  (  1.1%)
Total Energy calculation    ....       0.446 sec  (  0.3%)
Population analysis         ....       4.276 sec  (  2.8%)
Orbital Transformation      ....       0.720 sec  (  0.5%)
Orbital Orthonormalization  ....       0.000 sec  (  0.0%)
DIIS solution               ....       3.188 sec  (  2.1%)
SOSCF solution              ....       2.312 sec  (  1.5%)
Finished LeanSCF after 154.4 sec

Maximum memory used throughout the entire LEANSCF-calculation: 236.2 MB

-------------------------   --------------------
FINAL SINGLE POINT ENERGY     -2856.123191324682
-------------------------   --------------------



           ************************************************************
           *        Program running with 20 parallel MPI-processes    *
           *              working on a common directory               *
           ************************************************************

------------------------------------------------------------------------------
                              ORCA PROPERTY CALCULATIONS
------------------------------------------------------------------------------

GBWName                                 ... c60malonicester.gbw
Number of atoms                         ...     81
Number of basis functions               ...   1044
Max core memory                         ...   5000 MB

Electric properties:
Dipole moment                           ... YES
Quadrupole moment                       ...  NO
Static polarizability (Dipole/Dipole)   ...  NO
Static polarizability (Dipole/Quad.)    ...  NO
Static polarizability (Quad./Quad.)     ...  NO
Static polarizability (Velocity)        ...  NO

Atomic electric properties:
Dipole moment                           ...  NO
Quadrupole moment                       ...  NO
Static polarizability                   ...  NO

Choice of electric origin               ... Center of mass
Position of electric origin             ...    -0.136302     1.099389     0.113696

General magnetic properties:
Magnetizability                         ...  NO

EPR properties:
g-Tensor (aka g-matrix)                 ...  NO
Zero-Field splitting spin-orbit         ...  NO
Zero-field splitting spin-spin          ...  NO
Hyperfine couplings                     ...  NO (   0 nuclei)
Quadrupole couplings                    ...  NO (   0 nuclei)
Contact density                         ...  NO (   0 nuclei)

NMR properties:
Chemical shifts                         ...  NO (   0 nuclei)
Spin-rotation constants                 ...  NO (   0 nuclei)
Spin-spin couplings                     ...  NO (   0 nuclei,    0 pairs)

Choice of magnetic origin               ... GIAO
Position of magnetic origin             ...     0.000000     0.000000     0.000000

Properties with geometric perturbations:
SCF Hessian                             ...  NO
IR spectrum                             ...  NO
VCD spectrum                            ...  NO
X-ray spectroscopy properties:
SCF XES/XAS/RIXS spectra                ...  NO


-------------
DIPOLE MOMENT
-------------

Method             : SCF
Type of density    : Electron Density
Multiplicity       :   1
Irrep              :   0
Energy             : -2856.1231913246824661 Eh
Relativity type    : 
Basis              : AO
                                X                 Y                 Z
Electronic contribution:     11.155825502     -57.692123621      -6.952887690
Nuclear contribution   :    -11.394971416      59.199487493       7.125078701
                        -----------------------------------------
Total Dipole Moment    :     -0.239145913       1.507363872       0.172191011
                        -----------------------------------------
Magnitude (a.u.)       :      1.535899201
Magnitude (Debye)      :      3.903945517



--------------------
Rotational spectrum 
--------------------
 
Rotational constants in cm-1:             0.002415             0.001417             0.001351 
Rotational constants in MHz :            72.393265            42.480838            40.503316 

Dipole components along the rotational axes: 
x,y,z [a.u.] :    -1.535274    -0.043633     0.003996 
x,y,z [Debye]:    -3.902357    -0.110906     0.010157 

 

Dipole moment calculation done in   0.0 sec 

Maximum memory used throughout the entire PROP-calculation: 118.7 MB

--------------------------------
SUGGESTED CITATIONS FOR THIS RUN
--------------------------------

Below you find a list of papers that are relevant to this ORCA run
We neither can nor want to force you to cite these papers, but we appreciate if you do
You receive ORCA, which is the product of decades of hard work by many enthusiastic individuals, for free
The only thing we kindly ask in return is that you cite our papers,
We deeply appreciate it, if you show your appreciation for ORCA by not just citing the generic ORCA reference.

Please note that relegating all ORCA citations to the supporting information does *not* help us.
SI sections are not indexed - citations you put there will not count into any citation statistics
But we need these citations in order to attract the funding resources that allow us to do what we are doing

Therefore, if you are a happy ORCA user, please consider citing a few of the papers listed below in the main body of your paper

In addition to the list printed below, the program has created the file c60malonicester.bibtex that contains the list in bibtex format
You can import this file easily into all common literature databanks and citation aid programs


List of essential papers. We consider these as the minimum necessary citations

  1. Neese,F.
     Software update: the ORCA program system, version 5.0
     WIRES Comput. Molec. Sci., 2022 12(1)e1606
     doi.org/10.1002/wcms.1606

List of papers to cite with high priority. The work reported in these papers was absolutely
necessary for this run to complete.
Our perspective: the developers of density functionals and basis sets usually get cited in chemistry papers
Good! But without the algorithms to do something with them, the functionals or basis sets would not do anything.
Hence, in our opinion, the algorithm design and method developments papers are equally worthy of getting cited

  1. Neese,F.
     An improvement of the resolution of the identity approximation for the formation of the Coulomb matrix
     J. Comp. Chem., 2003 24(14)1740-1747
     doi.org/10.1002/jcc.10318
  2. Neese,F.; Wennmohs,F.; Hansen,A.; Becker,U.
     Efficient, approximate and parallel Hartree-Fock and hybrid DFT calculations. A 'chain-of-spheres' algorithm for the Hartree-Fock exchange
     Chem. Phys., 2009 356(1-3)98-109
     doi.org/10.1016/j.chemphys.2008.10.036
  3. Helmich-Paris,B.; de Souza,B.; Neese,F.; Izsák,R.
     An improved chain of spheres for exchange algorithm
     J. Chem. Phys., 2021 155 104109
     doi.org/doi: 10.1063/5.0058766.
  4. Neese,F.
     The SHARK Integral Generation and Digestion System
     J. Comp. Chem., 2022  1-16
     doi.org/10.1002/jcc.26942

List of suggested additional citations. These are papers that are important in the 'surrounding' of 
of this run, or papers that preceded the highly important papers. If you like your results we are grateful for a citation.

  1. Izsak,R.; Neese,F.
     An overlap fitted chain of spheres exchange method
     J. Chem. Phys., 2011 135 144105
     doi.org/10.1063/1.3646921
  2. Izsak,R.; Hansen,A.; Neese,F.
     The resolution of identity and chain of spheres approximations for the LPNO-CCSD singles Fock term
     Molec. Phys., 2012 110 2413-2417
     doi.org/10.1080/00268976.2012.687466
  3. Neese,F.
     The ORCA program system
     WIRES Comput. Molec. Sci., 2012 2(1)73-78
     doi.org/10.1002/wcms.81
  4. Izsak,R.; Neese,F.; Klopper,W.
     Robust fitting techniques in the chain of spheres approximation to the Fock exchange: The role of the complementary space
     J. Chem. Phys., 2013 139 
     doi.org/10.1063/1.4819264
  5. Neese,F.
     Software update: the ORCA program system, version 4.0
     WIRES Comput. Molec. Sci., 2018 8(1)1-6
     doi.org/10.1002/wcms.1327
  6. Neese,F.; Wennmohs,F.; Becker,U.; Riplinger,C.
     The ORCA quantum chemistry program package
     J. Chem. Phys., 2020 152 Art. No. L224108
     doi.org/10.1063/5.0004608

List of optional additional citations

  1. Neese,F.
     Approximate second-order SCF convergence for spin unrestricted wavefunctions
     Chem. Phys. Lett., 2000 325(1-3)93-98
     doi.org/10.1016/s0009-2614(00)00662-x

Timings for individual modules:

Sum of individual times          ...      167.012 sec (=   2.784 min)
Startup calculation              ...        8.150 sec (=   0.136 min)   4.9 %
SCF iterations                   ...      157.891 sec (=   2.632 min)  94.5 %
Property calculations            ...        0.972 sec (=   0.016 min)   0.6 %
                             ****ORCA TERMINATED NORMALLY****
TOTAL RUN TIME: 0 days 0 hours 2 minutes 47 seconds 935 msec
