# vtk DataFile Version 1.0
Cube
ASCII

DATASET POLYDATA
POINTS 29 float
6.881301 6.836828 1.884859
2.017436 1.639705 4.920354
4.832720 2.874072 1.470406
5.820514 11.435331 10.613956
5.735403 3.691409 11.888756
2.837787 2.967819 7.561212
2.240709 3.910315 2.882460
4.360199 5.796516 0.438430
7.213622 9.372225 3.646166
2.386957 1.863113 6.604592
5.477056 11.211257 8.943541
3.077278 9.593275 4.840595
4.770303 3.454739 10.718548
5.169517 6.333111 1.598852
2.090347 3.525442 11.396255
5.940950 9.875082 11.348547
1.428465 3.379142 1.702833
5.797604 9.650046 4.140868
1.834991 3.217970 4.189800
3.718541 3.647219 2.639880
2.880858 6.037383 0.716853
6.713393 8.299610 0.758446
5.081016 1.396825 2.521220
4.083633 3.668336 7.155077
7.297014 7.901474 3.247859
2.012549 5.405420 3.109627
4.611049 4.307830 0.185941
4.401258 1.824350 0.051379
1.666182 4.043104 7.604028
POINT_DATA 29
SCALARS my_scalars float
LOOKUP_TABLE default
2
2
2
2
1.8
1.8
1.8
1.8
1.8
1.52
1.52
1.52
1.52
1.52
1.52
1.52
1.52
1.52
1.52
1.52
1.52
1.52
1.52
1.52
1.52
1.52
1.52
1.52
1.52
VECTORS vectors float
0.21875 0 0
0.21875 0 0
0.21875 0 0
0.21875 0 0
0.15625 0 0
0.15625 0 0
0.15625 0 0
0.15625 0 0
0.15625 0 0
0.03125 0 0
0.03125 0 0
0.03125 0 0
0.03125 0 0
0.03125 0 0
0.03125 0 0
0.03125 0 0
0.03125 0 0
0.03125 0 0
0.03125 0 0
0.03125 0 0
0.03125 0 0
0.03125 0 0
0.03125 0 0
0.03125 0 0
0.03125 0 0
0.03125 0 0
0.03125 0 0
0.03125 0 0
0.03125 0 0
