--------------------------------------------------------------------------
By default, for Open MPI 4.0 and later, infiniband ports on a device
are not used by default.  The intent is to use UCX for these devices.
You can override this policy by setting the btl_openib_allow_ib MCA parameter
to true.

  Local host:              psid01
  Local adapter:           mlx5_0
  Local port:              1

--------------------------------------------------------------------------
--------------------------------------------------------------------------
WARNING: There was an error initializing an OpenFabrics device.

  Local host:   psid01
  Local device: mlx5_0
--------------------------------------------------------------------------

     Program PWSCF v.7.3.1 starts on 10Feb2025 at 12: 1:50 

     This program is part of the open-source Quantum ESPRESSO suite
     for quantum simulation of materials; please cite
         "P. Giannozzi et al., J. Phys.:Condens. Matter 21 395502 (2009);
         "P. Giannozzi et al., J. Phys.:Condens. Matter 29 465901 (2017);
         "P. Giannozzi et al., J. Chem. Phys. 152 154105 (2020);
          URL http://www.quantum-espresso.org", 
     in publications or presentations arising from this work. More details at
     http://www.quantum-espresso.org/quote

     Parallel version (MPI), running on     4 processors

     MPI processes distributed on     1 nodes
     97718 MiB available memory on the printing compute node when the environment starts

     Waiting for input...
     Reading input from standard input
Warning: card &CELL ignored
Warning: card / ignored

     Current dimensions of program PWSCF are:
     Max number of different atomic species (ntypx) = 10
     Max number of k-points (npk) =  40000
     Max angular momentum in pseudopotentials (lmaxx) =  4
     file O.pbe-n-kjpaw_psl.0.1.UPF: wavefunction(s)  2P renormalized

     gamma-point specific algorithms are used

     R & G space division:  proc/nbgrp/npool/nimage =       4
     Subspace diagonalization in iterative solution of the eigenvalue problem:
     a serial algorithm will be used


     Parallelization info
     --------------------
     sticks:   dense  smooth     PW     G-vecs:    dense   smooth      PW
     Min        9986    4445   1109              1502190   445106   55651
     Max        9988    4448   1112              1502192   445110   55652
     Sum       39949   17785   4445              6008765  1780431  222607

     Using Slab Decomposition



     bravais-lattice index     =            1
     lattice parameter (alat)  =      47.2432  a.u.
     unit-cell volume          =  105442.7265 (a.u.)^3
     number of atoms/cell      =           19
     number of atomic types    =            3
     number of electrons       =        66.00
     number of Kohn-Sham states=           33
     kinetic-energy cutoff     =      25.0000  Ry
     charge density cutoff     =     225.0000  Ry
     scf convergence threshold =      1.0E-06
     mixing beta               =       0.7000
     number of iterations used =            8  plain     mixing
     Exchange-correlation= SLA  PW   PBX  PBC
                           (   1   4   3   4   0   0   0)

     celldm(1)=  47.243153  celldm(2)=   0.000000  celldm(3)=   0.000000
     celldm(4)=   0.000000  celldm(5)=   0.000000  celldm(6)=   0.000000

     crystal axes: (cart. coord. in units of alat)
               a(1) = (   1.000000   0.000000   0.000000 )  
               a(2) = (   0.000000   1.000000   0.000000 )  
               a(3) = (   0.000000   0.000000   1.000000 )  

     reciprocal axes: (cart. coord. in units 2 pi/alat)
               b(1) = (  1.000000  0.000000  0.000000 )  
               b(2) = (  0.000000  1.000000  0.000000 )  
               b(3) = (  0.000000  0.000000  1.000000 )  


     PseudoPot. # 1 for Zn read from file:
     /home/ys/qe-7.3.1/pseudo/Standard_solid-state_pseudopotentials_SSSP_1.3.0_PBE_efficiency/Zn_pbe_v1.uspp.F.UPF
     MD5 check sum: df62231357ef9e81f77b2b3087fa5675
     Pseudo is Ultrasoft, Zval = 20.0
     Generated by new atomic code, or converted to UPF format
     Using radial grid of  943 points,  6 beta functions with: 
                l(1) =   0
                l(2) =   0
                l(3) =   1
                l(4) =   1
                l(5) =   2
                l(6) =   2
     Q(r) pseudized with  8 coefficients,  rinner =    1.100   1.100   1.100
                                                       1.100   1.100

     PseudoPot. # 2 for H  read from file:
     /home/ys/qe-7.3.1/pseudo/Standard_solid-state_pseudopotentials_SSSP_1.3.0_PBE_efficiency/H.pbe-rrkjus_psl.1.0.0.UPF
     MD5 check sum: f52b6d4d1c606e5624b1dc7b2218f220
     Pseudo is Ultrasoft, Zval =  1.0
     Generated using "atomic" code by A. Dal Corso  v.5.1
     Using radial grid of  929 points,  2 beta functions with: 
                l(1) =   0
                l(2) =   0
     Q(r) pseudized with 0 coefficients 


     PseudoPot. # 3 for O  read from file:
     /home/ys/qe-7.3.1/pseudo/Standard_solid-state_pseudopotentials_SSSP_1.3.0_PBE_efficiency/O.pbe-n-kjpaw_psl.0.1.UPF
     MD5 check sum: 0234752ac141de4415c5fc33072bef88
     Pseudo is Projector augmented-wave + core cor, Zval =  6.0
     Generated using "atomic" code by A. Dal Corso  v.5.0.99 svn rev. 10869
     Shape of augmentation charge: BESSEL
     Using radial grid of 1095 points,  4 beta functions with: 
                l(1) =   0
                l(2) =   0
                l(3) =   1
                l(4) =   1
     Q(r) pseudized with 0 coefficients 


     atomic species   valence    mass     pseudopotential
     Zn               20.00    65.39000     Zn( 1.00)
     H                 1.00     1.00794     H ( 1.00)
     O                 6.00    15.99940     O ( 1.00)

     No symmetry found



   Cartesian axes

     site n.     atom                  positions (alat units)
         1        Zn     tau(   1) = (   0.1321304   0.1352623   0.1301697  )
         2        H      tau(   2) = (   0.0449893   0.1067427   0.0657451  )
         3        O      tau(   3) = (   0.0539079   0.1235425   0.0997307  )
         4        H      tau(   4) = (   0.0206277   0.1359859   0.1156578  )
         5        H      tau(   5) = (   0.2433704   0.1363882   0.1474840  )
         6        O      tau(   6) = (   0.2093807   0.1481341   0.1624252  )
         7        H      tau(   7) = (   0.2169523   0.1650638   0.1966617  )
         8        H      tau(   8) = (   0.1098626   0.2273099   0.0690180  )
         9        O      tau(   9) = (   0.1374736   0.2100417   0.0903901  )
        10        H      tau(  10) = (   0.1681993   0.2339508   0.0911524  )
        11        H      tau(  11) = (   0.0970573   0.0354475   0.1667304  )
        12        O      tau(  12) = (   0.1280580   0.0590197   0.1670129  )
        13        H      tau(  13) = (   0.1546350   0.0430112   0.1905539  )
        14        H      tau(  14) = (   0.0876333   0.1550782   0.2315936  )
        15        O      tau(  15) = (   0.0995507   0.1728264   0.1990533  )
        16        H      tau(  16) = (   0.0913877   0.2107154   0.2028987  )
        17        H      tau(  17) = (   0.1738449   0.0604742   0.0581365  )
        18        O      tau(  18) = (   0.1645778   0.0981267   0.0615832  )
        19        H      tau(  19) = (   0.1750619   0.1158524   0.0285420  )

     number of k points=     1
                       cart. coord. in units 2pi/alat
        k(    1) = (   0.0000000   0.0000000   0.0000000), wk =   2.0000000

     Dense  grid:  3004383 G-vectors     FFT dimensions: ( 225, 225, 225)

     Smooth grid:   890216 G-vectors     FFT dimensions: ( 160, 160, 160)

     Estimated max dynamical RAM per process >       2.81 GB

     Estimated total dynamical RAM >      11.24 GB

     Initial potential from superposition of free atoms

     starting charge      67.9997, renormalised to      66.0000

     negative rho (up, down):  1.895E-02 0.000E+00
[psid01:156498] 3 more processes have sent help message help-mpi-btl-openib.txt / ib port not selected
[psid01:156498] Set MCA parameter "orte_base_help_aggregate" to 0 to see all help / error messages
[psid01:156498] 3 more processes have sent help message help-mpi-btl-openib.txt / error in device init
     Starting wfcs are   49 randomized atomic wfcs
     Checking if some PAW data can be deallocated... 

     total cpu time spent up to now is       10.2 secs

     Self-consistent Calculation

     iteration #  1     ecut=    25.00 Ry     beta= 0.70
     Davidson diagonalization with overlap
     ethr =  1.00E-02,  avg # of iterations =  2.0

     negative rho (up, down):  1.825E-02 0.000E+00

     total cpu time spent up to now is       26.7 secs

     total energy              =    -721.19531610 Ry
     estimated scf accuracy    <       5.15282488 Ry

     iteration #  2     ecut=    25.00 Ry     beta= 0.70
     Davidson diagonalization with overlap
     ethr =  7.81E-03,  avg # of iterations =  2.0

     negative rho (up, down):  3.254E-02 0.000E+00

     total cpu time spent up to now is       43.5 secs

     total energy              =    -722.55875341 Ry
     estimated scf accuracy    <       3.03552263 Ry

     iteration #  3     ecut=    25.00 Ry     beta= 0.70
     Davidson diagonalization with overlap
     ethr =  4.60E-03,  avg # of iterations =  2.0

     negative rho (up, down):  1.562E-02 0.000E+00

     total cpu time spent up to now is       59.8 secs

     total energy              =    -723.17056102 Ry
     estimated scf accuracy    <       0.03729023 Ry

     iteration #  4     ecut=    25.00 Ry     beta= 0.70
     Davidson diagonalization with overlap
     ethr =  5.65E-05,  avg # of iterations =  2.0

     negative rho (up, down):  1.489E-02 0.000E+00

     total cpu time spent up to now is       75.9 secs

     total energy              =    -723.17455981 Ry
     estimated scf accuracy    <       0.00543279 Ry

     iteration #  5     ecut=    25.00 Ry     beta= 0.70
     Davidson diagonalization with overlap
     ethr =  8.23E-06,  avg # of iterations =  2.0

     negative rho (up, down):  1.485E-02 0.000E+00

     total cpu time spent up to now is       91.7 secs

     total energy              =    -723.17495814 Ry
     estimated scf accuracy    <       0.00100306 Ry

     iteration #  6     ecut=    25.00 Ry     beta= 0.70
     Davidson diagonalization with overlap
     ethr =  1.52E-06,  avg # of iterations =  2.0

     negative rho (up, down):  1.484E-02 0.000E+00

     total cpu time spent up to now is      107.6 secs

     total energy              =    -723.17503994 Ry
     estimated scf accuracy    <       0.00009011 Ry

     iteration #  7     ecut=    25.00 Ry     beta= 0.70
     Davidson diagonalization with overlap
     ethr =  1.37E-07,  avg # of iterations =  3.0

     negative rho (up, down):  1.482E-02 0.000E+00

     total cpu time spent up to now is      124.6 secs

     total energy              =    -723.17507120 Ry
     estimated scf accuracy    <       0.00002005 Ry

     iteration #  8     ecut=    25.00 Ry     beta= 0.70
     Davidson diagonalization with overlap
     ethr =  3.04E-08,  avg # of iterations =  2.0

     negative rho (up, down):  1.481E-02 0.000E+00

     total cpu time spent up to now is      140.3 secs

     total energy              =    -723.17507317 Ry
     estimated scf accuracy    <       0.00000160 Ry

     iteration #  9     ecut=    25.00 Ry     beta= 0.70
     Davidson diagonalization with overlap
     ethr =  2.42E-09,  avg # of iterations =  2.0

     negative rho (up, down):  1.481E-02 0.000E+00

     total cpu time spent up to now is      156.1 secs

     End of self-consistent calculation

          k = 0.0000 0.0000 0.0000 (111304 PWs)   bands (ev):

  -135.6149 -89.4697 -89.4680 -89.4678 -31.7552 -31.5900 -31.5817 -31.5733
   -31.5211 -31.5131 -18.9542 -18.9484 -18.9325 -18.9133 -18.9067 -18.8991
   -17.7177 -17.4187 -17.4120 -16.1995 -16.1747 -16.1477 -16.1304 -16.1079
   -16.0789 -13.9013 -13.8956 -13.1684 -13.1568 -13.1210 -13.0510 -13.0487
   -13.0258

     highest occupied level (ev):   -13.0258

!    total energy              =    -723.17507344 Ry
     estimated scf accuracy    <       0.00000006 Ry

     The total energy is the sum of the following terms:
     one-electron contribution =   -2235.28461128 Ry
     hartree contribution      =    1107.44410171 Ry
     xc contribution           =     -94.07572485 Ry
     ewald contribution        =     555.83197129 Ry
     one-center paw contrib.   =     -57.09081031 Ry

     convergence has been achieved in   9 iterations

     Writing all to output data dir /home/ys/Research/PSID_server_room/qe/zinc_hydrate_relax/pwscf.save/ :
     XML data file, charge density, pseudopotentials, collected wavefunctions

     init_run     :      8.99s CPU     10.03s WALL (       1 calls)
     electrons    :    133.23s CPU    146.22s WALL (       1 calls)

     Called by init_run:
     wfcinit      :      2.19s CPU      2.24s WALL (       1 calls)
     potinit      :      2.10s CPU      2.39s WALL (       1 calls)
     hinit0       :      0.59s CPU      0.67s WALL (       1 calls)

     Called by electrons:
     c_bands      :     40.63s CPU     41.11s WALL (       9 calls)
     sum_band     :     41.67s CPU     46.92s WALL (       9 calls)
     v_of_rho     :     16.55s CPU     18.47s WALL (      10 calls)
     newd         :     33.53s CPU     39.13s WALL (      10 calls)
     PAW_pot      :      0.68s CPU      0.68s WALL (      10 calls)
     mix_rho      :      3.06s CPU      3.30s WALL (       9 calls)

     Called by c_bands:
     init_us_2    :      0.37s CPU      0.38s WALL (      19 calls)
     regterg      :     40.18s CPU     40.66s WALL (       9 calls)

     Called by *egterg:
     rdiaghg      :      0.02s CPU      0.02s WALL (      28 calls)
     h_psi        :     28.35s CPU     28.79s WALL (      29 calls)
     s_psi        :      3.13s CPU      3.14s WALL (      29 calls)
     g_psi        :      0.05s CPU      0.05s WALL (      19 calls)

     Called by h_psi:
     h_psi:calbec :      5.19s CPU      5.21s WALL (      29 calls)
     vloc_psi     :     19.92s CPU     20.35s WALL (      29 calls)
     add_vuspsi   :      3.16s CPU      3.17s WALL (      29 calls)

     General routines
     calbec       :      6.99s CPU      7.00s WALL (      38 calls)
     fft          :     15.31s CPU     16.83s WALL (     108 calls)
     ffts         :      0.76s CPU      0.80s WALL (      19 calls)
     fftw         :     19.72s CPU     20.18s WALL (    1043 calls)
     interpolate  :      1.93s CPU      2.10s WALL (      10 calls)

     Parallel routines

     PWSCF        :   2m22.45s CPU   2m36.76s WALL


   This run was terminated on:  12: 4:26  10Feb2025            

=------------------------------------------------------------------------------=
   JOB DONE.
=------------------------------------------------------------------------------=
