LAMMPS data file via write_data, version 2 Aug 2023, timestep = 200006, units = real

40 atoms
4 atom types

-15 15 xlo xhi
-15 15 ylo yhi
-15 15 zlo zhi

Masses

1 15.9994
2 1.00794
3 15.9994
4 15.9994

Atoms # charge

37 2 0.1376578474766632 4.608969 -3.8286 1.439678 0 0 0
2 3 -0.6549467201345403 -4.093572 -1.399029 1.232661 0 0 0
12 1 -0.1971509599824456 -3.716933 -0.800485 -1.469755 0 0 0
17 1 -0.05524509351254744 -4.63815 0.394721 -1.456949 0 0 0
19 1 -0.2316118095914826 -5.920806 0.372055 -1.088332 0 0 0
24 2 0.1167512465330645 -3.266383 -0.903905 -2.471505 0 0 0
25 2 0.1703844419749685 -4.296793 -1.713952 -1.267466 0 0 0
31 2 0.1329673378776744 -4.175928 1.346007 -1.750676 0 0 0
34 2 0.3102041512629758 -4.133634 -1.554311 2.185145 0 0 0
35 2 0.1305527610283145 -6.532081 1.279261 -1.08624 0 0 0
36 2 0.1587548156551986 -6.402135 -0.556626 -0.765117 0 0 0
1 3 -0.6566758930256777 0.17169 2.057246 -1.802725 0 0 0
3 1 -0.0310131869499437 1.050346 0.444506 -0.274697 0 0 0
4 1 0.0497838749315658 -0.305395 -0.008963 0.123537 0 0 0
5 1 -0.001096022723988437 -2.604705 -0.656007 -0.45342 0 0 0
6 1 -0.1117355383588996 -1.339462 -0.192201 -0.812935 0 0 0
8 1 -0.1236508582731564 2.187003 -0.132062 0.311259 0 0 0
9 1 0.2652744973782405 1.257724 1.472379 -1.224712 0 0 0
10 1 -0.09879442824654461 -0.586309 -0.30619 1.466332 0 0 0
11 1 0.2621281934916422 -2.854163 -0.945741 0.902383 0 0 0
15 1 -0.1576278549543776 -1.842972 -0.770883 1.852322 0 0 0
16 1 -0.1640929656045375 2.556443 1.878716 -1.546186 0 0 0
21 2 0.171862797601916 -1.148607 0.030136 -1.86322 0 0 0
22 2 0.1714007578139109 2.04281 -0.949452 1.021547 0 0 0
23 2 0.165429717241043 0.182952 -0.156 2.226689 0 0 0
29 2 0.1411346061632317 -2.046613 -0.992006 2.905191 0 0 0
30 2 0.1270004522291274 2.698269 2.677347 -2.281971 0 0 0
33 2 0.3096745217994022 0.470608 2.763201 -2.390447 0 0 0
7 1 0.03608389331679986 3.494118 0.268234 0.005916 0 0 0
13 1 -0.2295985253202362 4.679642 -0.392949 0.686038 0 0 0
14 1 -0.1211562068701694 3.66369 1.284465 -0.938877 0 0 0
18 1 -0.07847772181772045 4.666704 -1.892876 0.565789 0 0 0
20 1 -0.2311919770085424 4.6241 -2.745812 1.592897 0 0 0
26 2 0.1161327826560716 5.607406 0.003244 0.237321 0 0 0
27 2 0.1573535031184491 4.705088 -0.115308 1.754873 0 0 0
28 2 0.111118721019417 4.669291 1.619038 -1.208331 0 0 0
32 2 0.1166191259541001 4.673208 -2.284922 -0.459296 0 0 0
38 2 0.1908133361879443 4.60538 -2.389875 2.628982 0 0 0
39 4 -0.2186048641956786 2.3009224489122144 -2.087395515287343 3.6946035779683406 0 0 0
40 4 -0.1864127561412347 2.590276214854096 -1.1390402719416697 4.356501194824233 0 0 0

Velocities

37 0 0 0
2 0 0 0
12 0 0 0
17 0 0 0
19 0 0 0
24 0 0 0
25 0 0 0
31 0 0 0
34 0 0 0
35 0 0 0
36 0 0 0
1 0 0 0
3 0 0 0
4 0 0 0
5 0 0 0
6 0 0 0
8 0 0 0
9 0 0 0
10 0 0 0
11 0 0 0
15 0 0 0
16 0 0 0
21 0 0 0
22 0 0 0
23 0 0 0
29 0 0 0
30 0 0 0
33 0 0 0
7 0 0 0
13 0 0 0
14 0 0 0
18 0 0 0
20 0 0 0
26 0 0 0
27 0 0 0
28 0 0 0
32 0 0 0
38 0 0 0
39 -0.0012822243013944602 -0.0010050994658563706 0.002587929390725148
40 -0.0032524106495645647 0.0024801733797481834 -0.0014648264655909196
