
                                 *****************
                                 * O   R   C   A *
                                 *****************

                                            #,                                       
                                            ###                                      
                                            ####                                     
                                            #####                                    
                                            ######                                   
                                           ########,                                 
                                     ,,################,,,,,                         
                               ,,#################################,,                 
                          ,,##########################################,,             
                       ,#########################################, ''#####,          
                    ,#############################################,,   '####,        
                  ,##################################################,,,,####,       
                ,###########''''           ''''###############################       
              ,#####''   ,,,,##########,,,,          '''####'''          '####       
            ,##' ,,,,###########################,,,                        '##       
           ' ,,###''''                  '''############,,,                           
         ,,##''                                '''############,,,,        ,,,,,,###''
      ,#''                                            '''#######################'''  
     '                                                          ''''####''''         
             ,#######,   #######,   ,#######,      ##                                
            ,#'     '#,  ##    ##  ,#'     '#,    #''#        ,####,   ,####,        
            ##       ##  ##   ,#'  ##            #'  '#       #'       #'  '#        
            ##       ##  #######   ##           ,######,      #####,   #    #        
            '#,     ,#'  ##    ##  '#,     ,#' ,#      #,     #,   #   #,  ,#        
             '#######'   ##     ##  '#######'  #'      '#     '####' # '####'        



                #########################################################
                #                        -***-                          #
                #          Department of theory and spectroscopy        #
                #                                                       #
                #                      Frank Neese                      #
                #                                                       #
                #     Directorship, Architecture, Infrastructure        #
                #                    SHARK, DRIVERS                     #
                #        Core code/Algorithms in most modules           #
                #                                                       #
                #        Max Planck Institute fuer Kohlenforschung      #
                #                Kaiser Wilhelm Platz 1                 #
                #                 D-45470 Muelheim/Ruhr                 #
                #                      Germany                          #
                #                                                       #
                #                  All rights reserved                  #
                #                        -***-                          #
                #########################################################


                         Program Version 6.0.1  -  RELEASE   -


 With contributions from (in alphabetic order):
[Max-Planck-Institut fuer Kohlenforschung]                               
  Daniel Aravena         : Magnetic Suceptibility                        
  Michael Atanasov       : Ab Initio Ligand Field Theory (pilot matlab implementation)
  Alexander A. Auer      : GIAO ZORA, VPT2 properties, NMR spectrum      
  Ute Becker             : All parallelization in ORCA, NUMFREQ, NUMCALC 
  Giovanni Bistoni       : ED, misc. LED, open-shell LED, HFLD           
  Martin Brehm           : Molecular dynamics                            
  Dmytro Bykov           : pre 5.0 version of the SCF Hessian            
  Marcos Casanova-Páez   : Triplet and SCS-CIS(D). UHF-(DLPNO)-IP/EA/STEOM-CCSD. UHF-CVS-IP/STEOM-CCSD   
  Vijay G. Chilkuri      : MRCI spin determinant printing, contributions to CSF-ICE 
  Pauline Colinet        : FMM embedding                                 
  Dipayan Datta          : RHF DLPNO-CCSD density                        
  Achintya Kumar Dutta   : EOM-CC, STEOM-CC                              
  Nicolas Foglia         : Exact transition moments, OPA infrastructure, MCD improvements    
  Dmitry Ganyushin       : Spin-Orbit,Spin-Spin,Magnetic field MRCI      
  Miquel Garcia-Rates    : C-PCM and meta-GGA Hessian, CCSD/C-PCM, Gaussian charge scheme 
  Tiago L. C. Gouveia    : GS-ROHF, GS-ROCIS                             
  Yang Guo               : DLPNO-NEVPT2, F12-NEVPT2, CIM, IAO-localization        
  Andreas Hansen         : Spin unrestricted coupled pair/coupled cluster methods 
  Ingolf Harden          : AUTO-CI MPn and infrastructure                
  Benjamin Helmich-Paris : MC-RPA, TRAH-(SCF,CASSCF), AVAS, COSX integrals, SCF dyn. polar. 
  Lee Huntington         : MR-EOM, pCC                                   
  Robert Izsak           : Overlap fitted RIJCOSX, COSX-SCS-MP3, EOM     
  Riya Kayal             : Wick's Theorem for AUTO-CI, AUTO-CI UHF-CCSDT 
  Emily Kempfer          : AUTO-CI, RHF CISDT and CCSDT                  
  Christian Kollmar      : KDIIS, OOCD, Brueckner-CCSD(T), CCSD density, CASPT2, CASPT2-K, improved NEVPT2 
  Axel Koslowski         : Symmetry handling                             
  Simone Kossmann        : meta-GGA functionals, TD-DFT gradient, OOMP2, (MP2 Hessian; deprecated post 5.0) 
  Lucas Lang             : DCDCAS                                        
  Marvin Lechner         : AUTO-CI (C++ implementation), FIC-MRCC        
  Spencer Leger          : CASSCF response                               
  Dagmar Lenk            : GEPOL surface, SMD, ORCA-2-JSON               
  Dimitrios Liakos       : Extrapolation schemes; Compound Job, initial MDCI parallelization 
  Dimitrios Manganas     : Further ROCIS development; embedding schemes. LFT, Crystal Embedding 
  Dimitrios Pantazis     : SARC Basis sets                               
  Anastasios Papadopoulos: AUTO-CI, single reference methods and gradients 
  Taras Petrenko         : pre 6.0 DFT Hessian and TD-DFT gradient, (ASA, deprecated), ECA, 1-Electron XAS/XES, NRVS 
  Peter Pinski           : DLPNO-MP2, DLPNO-MP2 Gradient                 
  Christoph Reimann      : Effective Core Potentials                     
  Marius Retegan         : Local ZFS, SOC                                
  Christoph Riplinger    : Optimizer, TS searches, QM/MM, DLPNO-CCSD(T), (RO)-DLPNO pert. Triples 
  Michael Roemelt        : Original ROCIS implementation                 
  Masaaki Saitow         : Open-shell DLPNO-CCSD energy and density      
  Barbara Sandhoefer     : DKH picture change effects                    
  Kantharuban Sivalingam : CASSCF convergence/infrastructure, NEVPT2 and variants, FIC-MRCI 
  Bernardo de Souza      : ESD, SOC TD-DFT                               
  Georgi L. Stoychev     : AutoAux, RI-MP2 NMR, DLPNO-MP2 response, X2C  
  Van Anh Tran           : RI-MP2 g-tensors                              
  Willem Van den Heuvel  : Paramagnetic NMR                              
  Zikuan Wang            : NOTCH, Electric field optimization            
  Frank Wennmohs         : Technical directorship and infrastructure     
  Hang Xu                : AUTO-CI-Response properties                   
                                                                         
[FACCTs GmbH]                                                            
  Markus Bursch, Miquel Garcia-Rates, Christoph Riplinger, Bernardo de Souza, Georgi L. Stoychev 
                                                                 
  APM, Basis sets (HGBS, AHGBS, def-TZVP (Ac-Lr), def2-XVPD (La-Lu)), CI-OPT, improved COSX, DLPNO-Multilevel,           
  DOCKER, DRACO, updates on ESD, GOAT, IRC, LR-CPCM, MBIS, meta-GGA TD-DFT gradient, ML-optimized integration grids, 
  MM, NACMEs, nearIR, NEB, NEB-TS, NL-DFT gradient (VV10), 2- and 3-layer-ONIOM, interface openCOSMO-RS, QMMM,   
  Crystal-QMMM, SF, symmetry and pop. for TD-DFT, r2SCAN hybrids, SOLVATOR                                   
                                                                         
[Other institutions]                                                     
  V. Asgeirsson          : NEB                                           
  Christoph Bannwarth    : sTDA-DFT, sTD-DFT, PBEh-3c, B97-3c, D3        
  Sebastian Ehlert       : rSCAN, r2SCAN, r2SCAN-3c, D4, dhf basis sets  
  Marvin Friede          : D4 for Fr, Ra, Ac-Lr                          
  Lars Goerigk           : TD-DFT with DH, B97 family of functionals     
  Stefan Grimme          : VdW corrections, initial TS optimization, DFT functionals, gCP, sTDA/sTD-DF 
  Waldemar Hujo          : DFT-NL                                        
  H. Jonsson             : NEB                                           
  Holger Kruse           : gCP                                           
  Marcel Mueller         : wB97X-3c, vDZP basis set                      
  Hagen Neugebauer       : wr2SCAN                                       
  Tobias Risthaus        : range-separated hybrid DFT                    
  Lukas Wittmann         : regularized MP2, r2SCAN double-hybrids, wr2SCAN        
                                                                         
We gratefully acknowledge several colleagues who have allowed us to      
interface, adapt or use parts of their codes:                            
  Ed Valeev, F. Pavosevic, A. Kumar             : LibInt (2-el integral package), F12 methods 
  Garnet Chan, S. Sharma, J. Yang, R. Olivares  : DMRG                   
  Ulf Ekstrom                                   : XCFun DFT Library      
  Mihaly Kallay                                 : mrcc  (arbitrary order and MRCC methods)
  Frank Weinhold                                : gennbo (NPA and NBO analysis)           
  Simon Mueller                                 : openCOSMO-RS                            
  Christopher J. Cramer and Donald G. Truhlar   : smd solvation model                     
  S Lehtola, MJT Oliveira, MAL Marques          : LibXC Library                           
  Liviu Ungur et al                             : ANISO software                          


 Your calculation uses the libint2 library for the computation of 2-el integrals
 For citations please refer to: http://libint.valeyev.net

 Your ORCA version has been built with support for libXC version: 6.2.2
 For citations please refer to: https://libxc.gitlab.io

 This ORCA versions uses:
   CBLAS   interface :  Fast vector & matrix operations
   LAPACKE interface :  Fast linear algebra routines
   SCALAPACK package :  Parallel linear algebra routines
   Shared memory     :  Shared parallel matrices
   BLAS/LAPACK       :  OpenBLAS 0.3.27  USE64BITINT DYNAMIC_ARCH NO_AFFINITY SkylakeX SINGLE_THREADED
        Core in use  :  SkylakeX
   Copyright (c) 2011-2014, The OpenBLAS Project


NOTE: MaxCore=5000 MB was set to SCF,MP2,MDCI,CIPSI,MRCI and CIS
      => If you want to overwrite this, your respective input block should be placed after the MaxCore statement
Your calculation utilizes the atom-pairwise dispersion correction
with the zero-damping scheme (D30)


XCFun DFT library Copyright 2009-2010 Ulf Ekstrom and contributors.
See http://admol.org/xcfun for more information.
This is free software; see the source code for copying conditions.
There is ABSOLUTELY NO WARRANTY; not even for MERCHANTABILITY or FITNESS FOR A PARTICULAR PURPOSE.
For details see the documentation.
Scientific users of this library should cite U. Ekstrom, L. Visscher, R. Bast, A. J. Thorvaldsen and K. Ruud;
J.Chem.Theor.Comp. 2010, DOI: 10.1021/ct100117s
XCFun Version 0.99 

Warning: RI is on but no J-basis has been assigned. Assigning Def2/J (nothing to worry about!)
================================================================================

----- Orbital basis set information -----
Your calculation utilizes the basis: def2-SVP
   F. Weigend and R. Ahlrichs, Phys. Chem. Chem. Phys. 7, 3297 (2005).

----- AuxJ basis set information -----
Your calculation utilizes the auxiliary basis: def2/J
   F. Weigend, Phys. Chem. Chem. Phys. 8, 1057 (2006).

================================================================================
                                        WARNINGS
                       Please study these warnings very carefully!
================================================================================


WARNING: Gradients are needed
  ===> : At least TightSCF should be used for SCF convergence

WARNING: Geometry Optimization
  ===> : Switching off AutoStart
         For restart on a previous wavefunction, please use MOREAD

WARNING: TRAH does not support fractional occupations!
  ===> : Turning TRAH off

WARNING: Smearing is incompatible with SOSCF, disabling SOSCF
================================================================================
                                       INPUT FILE
================================================================================
NAME = honokiol_2.inp
|  1> ! wB97X-D3 def2-SVP OPT NormalSCF
|  2> 
|  3> %pal
|  4> nprocs 28
|  5> end
|  6> 
|  7> %maxcore 5000
|  8> 
|  9> %scf
| 10>  SmearTemp 500 
| 11> end
| 12> 
| 13> * xyz 0 1
| 14> O          0.29040        2.69180       -1.03220
| 15> O         -4.31070       -0.42590        1.63560
| 16> C          0.96360        0.69900        0.13120
| 17> C         -0.39990        0.40560        0.51570
| 18> C         -2.51970       -0.66010        0.05970
| 19> C         -1.20520       -0.37760       -0.31140
| 20> C          3.30650        0.10170        0.16880
| 21> C          1.98560       -0.16460        0.52960
| 22> C          1.26710        1.82980       -0.62940
| 23> C         -0.90920        0.90620        1.71370
| 24> C         -3.02920       -0.15950        1.25790
| 25> C         -3.36780       -1.50000       -0.83750
| 26> C          4.39720       -0.82180        0.59540
| 27> C          3.60780        1.23180       -0.59100
| 28> C         -2.22370        0.62350        2.08490
| 29> C          2.58810        2.09590       -0.99000
| 30> C         -4.13330       -0.69030       -1.85080
| 31> C          4.65950       -1.92370       -0.39840
| 32> C         -5.46840       -0.63560       -1.91540
| 33> C          4.50110       -3.22600       -0.13640
| 34> H         -0.81010       -0.76760       -1.24750
| 35> H          1.75600       -1.04870        1.12160
| 36> H         -0.29500        1.51850        2.36980
| 37> H         -2.73510       -2.21550       -1.37960
| 38> H         -4.04480       -2.12650       -0.24250
| 39> H          5.32740       -0.25690        0.73970
| 40> H          4.16110       -1.23780        1.58380
| 41> H          4.63250        1.45000       -0.88010
| 42> H         -2.60750        1.02000        3.02110
| 43> H          2.83790        2.97250       -1.58190
| 44> H         -3.55590       -0.12960       -2.58200
| 45> H          5.01500       -1.63310       -1.38400
| 46> H          0.69310        3.41190       -1.54700
| 47> H         -4.48550        0.00370        2.49040
| 48> H         -5.95770       -0.03760       -2.67630
| 49> H         -6.09220       -1.18040       -1.21550
| 50> H          4.71560       -3.96940       -0.89620
| 51> H          4.15620       -3.57130        0.83190
| 52> *
| 53> 
| 54> 
| 55>                          ****END OF INPUT****
================================================================================

                       *****************************
                       * Geometry Optimization Run *
                       *****************************

Geometry optimization settings:
Update method            Update   .... BFGS
Choice of coordinates    CoordSys .... (2022) Redundant Internals
Initial Hessian          InHess   .... Almloef's Model
Max. no of cycles        MaxIter  .... 114

Convergence Tolerances:
Energy Change            TolE     ....  5.0000e-06 Eh
Max. Gradient            TolMAXG  ....  3.0000e-04 Eh/bohr
RMS Gradient             TolRMSG  ....  1.0000e-04 Eh/bohr
Max. Displacement        TolMAXD  ....  4.0000e-03 bohr
RMS Displacement         TolRMSD  ....  2.0000e-03 bohr
Strict Convergence                .... False

------------------------------------------------------------------------------
                        ORCA OPTIMIZATION COORDINATE SETUP
------------------------------------------------------------------------------

The optimization will be done in redundant internal coordinates (2022)
Making redundant internal coordinates   ...  (2022 redundants) done
Evaluating the initial hessian          ...  (Almloef) done
Evaluating the coordinates              ...  done
Calculating the B-matrix                .... done
Calculating the G-matrix                .... done
Diagonalizing the G-matrix              .... done
Small eigenvalue found = 4.065e-03
Small eigenvalue found = 6.328e-03
Small eigenvalue found = 1.004e-02
Small eigenvalue found = 1.819e-02
Small eigenvalue found = 2.590e-02
Small eigenvalue found = 2.991e-02
The first mode is                       ....   77
The number of degrees of freedom        ....  108

    -----------------------------------------------------------------
                    Redundant Internal Coordinates


    -----------------------------------------------------------------
         Definition                    Initial Value    Approx d2E/dq
    -----------------------------------------------------------------
      1. B(C   3,C   2)                  1.4467         0.507240   
      2. B(C   5,C   3)                  1.3950         0.613441   
      3. B(C   5,C   4)                  1.3948         0.613904   
      4. B(C   7,C   6)                  1.3949         0.613551   
      5. B(C   7,C   2)                  1.3961         0.611018   
      6. B(C   8,C   2)                  1.3962         0.610760   
      7. B(C   8,O   0)                  1.3635         0.616729   
      8. B(C   9,C   3)                  1.3947         0.614099   
      9. B(C  10,C   4)                  1.3949         0.613547   
     10. B(C  10,O   1)                  1.3623         0.619534   
     11. B(C  11,C   4)                  1.4932         0.427637   
     12. B(C  12,C   6)                  1.4915         0.430386   
     13. B(C  13,C   6)                  1.3947         0.614089   
     14. B(C  14,C  10)                  1.3949         0.613568   
     15. B(C  14,C   9)                  1.3949         0.613753   
     16. B(C  15,C  13)                  1.3949         0.613721   
     17. B(C  15,C   8)                  1.3949         0.613540   
     18. B(C  16,C  11)                  1.5061         0.407836   
     19. B(C  17,C  12)                  1.5069         0.406722   
     20. B(C  18,C  16)                  1.3378         0.756922   
     21. B(C  19,C  17)                  1.3378         0.756857   
     22. B(H  20,C   5)                  1.0883         0.362301   
     23. B(H  21,C   7)                  1.0885         0.362102   
     24. B(H  22,C   9)                  1.0875         0.363445   
     25. B(H  23,C  11)                  1.0982         0.349368   
     26. B(H  24,C  11)                  1.0977         0.350109   
     27. B(H  25,C  12)                  1.0978         0.349904   
     28. B(H  26,C  12)                  1.0981         0.349595   
     29. B(H  27,C  13)                  1.0868         0.364318   
     30. B(H  28,C  14)                  1.0867         0.364450   
     31. B(H  29,C  15)                  1.0868         0.364334   
     32. B(H  30,C  16)                  1.0874         0.363562   
     33. B(H  31,C  17)                  1.0873         0.363681   
     34. B(H  32,O   0)                  0.9725         0.496644   
     35. B(H  33,O   1)                  0.9725         0.496584   
     36. B(H  34,C  18)                  1.0844         0.367545   
     37. B(H  35,C  18)                  1.0843         0.367666   
     38. B(H  36,C  19)                  1.0844         0.367568   
     39. B(H  37,C  19)                  1.0843         0.367666   
     40. A(C   8,O   0,H  32)          109.1399         0.366880   
     41. A(C  10,O   1,H  33)          109.0496         0.367158   
     42. A(C   7,C   2,C   8)          119.8243         0.431761   
     43. A(C   3,C   2,C   7)          119.2513         0.417652   
     44. A(C   3,C   2,C   8)          120.9244         0.417620   
     45. A(C   2,C   3,C   9)          119.9771         0.418026   
     46. A(C   2,C   3,C   5)          120.0230         0.417946   
     47. A(C   5,C   3,C   9)          119.9999         0.432492   
     48. A(C  10,C   4,C  11)          120.6980         0.405491   
     49. A(C   5,C   4,C  11)          119.2971         0.405533   
     50. A(C   5,C   4,C  10)          120.0049         0.432481   
     51. A(C   3,C   5,H  20)          120.1050         0.352638   
     52. A(C   3,C   5,C   4)          120.0008         0.432467   
     53. A(C   4,C   5,H  20)          119.8941         0.352683   
     54. A(C   7,C   6,C  13)          120.0102         0.432505   
     55. A(C   7,C   6,C  12)          120.0193         0.405951   
     56. A(C  12,C   6,C  13)          119.9705         0.406014   
     57. A(C   2,C   7,H  21)          120.2138         0.352369   
     58. A(C   6,C   7,H  21)          119.7005         0.352616   
     59. A(C   2,C   7,C   6)          120.0857         0.432115   
     60. A(O   0,C   8,C   2)          121.1471         0.429657   
     61. A(C   2,C   8,C  15)          120.0781         0.432081   
     62. A(O   0,C   8,C  15)          118.7748         0.430008   
     63. A(C   3,C   9,C  14)          119.9983         0.432532   
     64. A(C  14,C   9,H  22)          119.0657         0.352856   
     65. A(C   3,C   9,H  22)          120.9360         0.352890   
     66. A(O   1,C  10,C   4)          120.7674         0.430359   
     67. A(O   1,C  10,C  14)          119.2480         0.430362   
     68. A(C   4,C  10,C  14)          119.9846         0.432438   
     69. A(C   4,C  11,C  16)          112.9877         0.377548   
     70. A(H  23,C  11,H  24)          104.5391         0.288189   
     71. A(C  16,C  11,H  24)          110.9812         0.327515   
     72. A(C   4,C  11,H  24)          110.2213         0.330088   
     73. A(C  16,C  11,H  23)          108.1176         0.327401   
     74. A(C   4,C  11,H  23)          109.6231         0.329973   
     75. A(C   6,C  12,C  17)          113.0443         0.377788   
     76. A(H  25,C  12,H  26)          104.9997         0.288192   
     77. A(C   6,C  12,H  26)          109.5606         0.330358   
     78. A(C  17,C  12,H  25)          108.3895         0.327336   
     79. A(C   6,C  12,H  25)          109.7928         0.330406   
     80. A(C  17,C  12,H  26)          110.7349         0.327288   
     81. A(C   6,C  13,C  15)          119.9908         0.432526   
     82. A(C  15,C  13,H  27)          119.2607         0.352997   
     83. A(C   6,C  13,H  27)          120.7485         0.353032   
     84. A(C  10,C  14,H  28)          120.7705         0.353003   
     85. A(C   9,C  14,H  28)          119.2181         0.353021   
     86. A(C   9,C  14,C  10)          120.0114         0.432464   
     87. A(C  13,C  15,H  29)          119.1713         0.352999   
     88. A(C   8,C  15,H  29)          120.8177         0.352982   
     89. A(C   8,C  15,C  13)          120.0110         0.432457   
     90. A(C  11,C  16,C  18)          124.1744         0.417355   
     91. A(C  18,C  16,H  30)          118.4489         0.365700   
     92. A(C  11,C  16,H  30)          117.3699         0.329559   
     93. A(C  12,C  17,C  19)          124.1995         0.417146   
     94. A(C  19,C  17,H  31)          118.4512         0.365715   
     95. A(C  12,C  17,H  31)          117.3419         0.329428   
     96. A(H  34,C  18,H  35)          118.0592         0.292733   
     97. A(C  16,C  18,H  35)          121.4944         0.366404   
     98. A(C  16,C  18,H  34)          120.4463         0.366383   
     99. A(H  36,C  19,H  37)          118.0531         0.292736   
    100. A(C  17,C  19,H  37)          121.5026         0.366398   
    101. A(C  17,C  19,H  36)          120.4443         0.366382   
    102. D(C   5,C   3,C   2,C   8)     90.0060         0.017531   
    103. D(C   9,C   3,C   2,C   8)    -89.9875         0.017531   
    104. D(C   9,C   3,C   2,C   7)     90.0060         0.017531   
    105. D(C   5,C   3,C   2,C   7)    -90.0006         0.017531   
    106. D(H  20,C   5,C   4,C  11)      0.1081         0.026048   
    107. D(H  20,C   5,C   3,C   2)     -0.1057         0.026007   
    108. D(H  20,C   5,C   4,C  10)   -179.8895         0.026048   
    109. D(C   3,C   5,C   4,C  10)      0.0005         0.026048   
    110. D(C   3,C   5,C   4,C  11)    179.9981         0.026048   
    111. D(C   4,C   5,C   3,C   9)     -0.0021         0.026007   
    112. D(C   4,C   5,C   3,C   2)   -179.9955         0.026007   
    113. D(H  20,C   5,C   3,C   9)    179.8877         0.026007   
    114. D(C   6,C   7,C   2,C   3)   -179.9871         0.025790   
    115. D(C   6,C   7,C   2,C   8)      0.0064         0.025790   
    116. D(H  21,C   7,C   2,C   3)      0.0854         0.025790   
    117. D(H  21,C   7,C   6,C  13)    179.9229         0.026016   
    118. D(H  21,C   7,C   6,C  12)     -0.0814         0.026016   
    119. D(C   2,C   7,C   6,C  13)     -0.0049         0.026016   
    120. D(C   2,C   7,C   6,C  12)    179.9908         0.026016   
    121. D(H  21,C   7,C   2,C   8)   -179.9211         0.025790   
    122. D(C  15,C   8,C   2,C   7)     -0.0099         0.025767   
    123. D(C  15,C   8,C   2,C   3)    179.9835         0.025767   
    124. D(O   0,C   8,C   2,C   7)   -179.9515         0.025767   
    125. D(C  15,C   8,O   0,H  32)      0.0452         0.027884   
    126. D(O   0,C   8,C   2,C   3)      0.0420         0.025767   
    127. D(C   2,C   8,O   0,H  32)    179.9875         0.027884   
    128. D(H  22,C   9,C   3,C   5)   -179.9833         0.026066   
    129. D(C  14,C   9,C   3,C   5)      0.0122         0.026066   
    130. D(H  22,C   9,C   3,C   2)      0.0102         0.026066   
    131. D(C  14,C   9,C   3,C   2)   -179.9944         0.026066   
    132. D(C   4,C  10,O   1,H  33)   -179.9454         0.028157   
    133. D(C  14,C  10,C   4,C  11)    179.9934         0.026016   
    134. D(C  14,C  10,C   4,C   5)     -0.0090         0.026016   
    135. D(O   1,C  10,C   4,C  11)      0.0106         0.026016   
    136. D(O   1,C  10,C   4,C   5)   -179.9919         0.026016   
    137. D(C  14,C  10,O   1,H  33)      0.0716         0.028157   
    138. D(H  24,C  11,C   4,C   5)    145.1962         0.013509   
    139. D(H  23,C  11,C   4,C  10)   -149.3480         0.013509   
    140. D(H  23,C  11,C   4,C   5)     30.6544         0.013509   
    141. D(C  16,C  11,C   4,C  10)     89.9968         0.013509   
    142. D(C  16,C  11,C   4,C   5)    -90.0008         0.013509   
    143. D(H  26,C  12,C   6,C   7)    -34.0197         0.013680   
    144. D(H  25,C  12,C   6,C  13)     31.1553         0.013680   
    145. D(H  25,C  12,C   6,C   7)   -148.8404         0.013680   
    146. D(C  17,C  12,C   6,C  13)    -90.0058         0.013680   
    147. D(C  17,C  12,C   6,C   7)     89.9985         0.013680   
    148. D(H  27,C  13,C   6,C  12)      0.0993         0.026065   
    149. D(H  27,C  13,C   6,C   7)   -179.9050         0.026065   
    150. D(C  15,C  13,C   6,C  12)   -179.9887         0.026065   
    151. D(C  15,C  13,C   6,C   7)      0.0070         0.026065   
    152. D(H  28,C  14,C  10,C   4)   -179.9979         0.026018   
    153. D(H  28,C  14,C  10,O   1)     -0.0148         0.026018   
    154. D(C   9,C  14,C  10,C   4)      0.0191         0.026018   
    155. D(C   9,C  14,C  10,O   1)   -179.9978         0.026018   
    156. D(H  28,C  14,C   9,H  22)     -0.0084         0.026035   
    157. D(H  28,C  14,C   9,C   3)    179.9961         0.026035   
    158. D(C  10,C  14,C   9,H  22)    179.9749         0.026035   
    159. D(C  10,C  14,C   9,C   3)     -0.0207         0.026035   
    160. D(C   8,C  15,C  13,C   6)     -0.0105         0.026032   
    161. D(H  29,C  15,C   8,C   2)    179.9913         0.026015   
    162. D(H  29,C  15,C   8,O   0)     -0.0657         0.026015   
    163. D(C  13,C  15,C   8,C   2)      0.0119         0.026015   
    164. D(C  13,C  15,C   8,O   0)    179.9549         0.026015   
    165. D(H  29,C  15,C  13,H  27)     -0.0769         0.026032   
    166. D(H  29,C  15,C  13,C   6)   -179.9902         0.026032   
    167. D(C   8,C  15,C  13,H  27)    179.9028         0.026032   
    168. D(H  30,C  16,C  11,H  23)    -58.1930         0.012324   
    169. D(H  30,C  16,C  11,C   4)     63.3159         0.012324   
    170. D(C  18,C  16,C  11,H  24)      6.7363         0.012324   
    171. D(C  18,C  16,C  11,H  23)    120.8385         0.012324   
    172. D(C  18,C  16,C  11,C   4)   -117.6526         0.012324   
    173. D(H  31,C  17,C  12,H  25)    -58.5091         0.012259   
    174. D(H  31,C  17,C  12,C   6)     63.4429         0.012259   
    175. D(C  19,C  17,C  12,H  26)      5.8096         0.012259   
    176. D(C  19,C  17,C  12,H  25)    120.4856         0.012259   
    177. D(C  19,C  17,C  12,C   6)   -117.5624         0.012259   
    178. D(H  35,C  18,C  16,H  30)    179.5892         0.040932   
    179. D(H  35,C  18,C  16,C  11)      0.5674         0.040932   
    180. D(H  34,C  18,C  16,H  30)     -0.5082         0.040932   
    181. D(H  34,C  18,C  16,C  11)   -179.5299         0.040932   
    182. D(H  37,C  19,C  17,H  31)    179.5624         0.040924   
    183. D(H  37,C  19,C  17,C  12)      0.5780         0.040924   
    184. D(H  36,C  19,C  17,H  31)     -0.5262         0.040924   
    185. D(H  36,C  19,C  17,C  12)   -179.5106         0.040924   
    -----------------------------------------------------------------

Number of atoms                         .... 38
Number of degrees of freedom            .... 185


         *************************************************************
         *                GEOMETRY OPTIMIZATION CYCLE   1            *
         *************************************************************
---------------------------------
CARTESIAN COORDINATES (ANGSTROEM)
---------------------------------
  O      0.290400    2.691800   -1.032200
  O     -4.310700   -0.425900    1.635600
  C      0.963600    0.699000    0.131200
  C     -0.399900    0.405600    0.515700
  C     -2.519700   -0.660100    0.059700
  C     -1.205200   -0.377600   -0.311400
  C      3.306500    0.101700    0.168800
  C      1.985600   -0.164600    0.529600
  C      1.267100    1.829800   -0.629400
  C     -0.909200    0.906200    1.713700
  C     -3.029200   -0.159500    1.257900
  C     -3.367800   -1.500000   -0.837500
  C      4.397200   -0.821800    0.595400
  C      3.607800    1.231800   -0.591000
  C     -2.223700    0.623500    2.084900
  C      2.588100    2.095900   -0.990000
  C     -4.133300   -0.690300   -1.850800
  C      4.659500   -1.923700   -0.398400
  C     -5.468400   -0.635600   -1.915400
  C      4.501100   -3.226000   -0.136400
  H     -0.810100   -0.767600   -1.247500
  H      1.756000   -1.048700    1.121600
  H     -0.295000    1.518500    2.369800
  H     -2.735100   -2.215500   -1.379600
  H     -4.044800   -2.126500   -0.242500
  H      5.327400   -0.256900    0.739700
  H      4.161100   -1.237800    1.583800
  H      4.632500    1.450000   -0.880100
  H     -2.607500    1.020000    3.021100
  H      2.837900    2.972500   -1.581900
  H     -3.555900   -0.129600   -2.582000
  H      5.015000   -1.633100   -1.384000
  H      0.693100    3.411900   -1.547000
  H     -4.485500    0.003700    2.490400
  H     -5.957700   -0.037600   -2.676300
  H     -6.092200   -1.180400   -1.215500
  H      4.715600   -3.969400   -0.896200
  H      4.156200   -3.571300    0.831900

----------------------------
CARTESIAN COORDINATES (A.U.)
----------------------------
  NO LB      ZA    FRAG     MASS         X           Y           Z
   0 O     8.0000    0    15.999    0.548776    5.086765   -1.950575
   1 O     8.0000    0    15.999   -8.146042   -0.804834    3.090836
   2 C     6.0000    0    12.011    1.820940    1.320919    0.247932
   3 C     6.0000    0    12.011   -0.755701    0.766473    0.974532
   4 C     6.0000    0    12.011   -4.761543   -1.247408    0.112817
   5 C     6.0000    0    12.011   -2.277498   -0.713561   -0.588461
   6 C     6.0000    0    12.011    6.248379    0.192185    0.318986
   7 C     6.0000    0    12.011    3.752240   -0.311049    1.000799
   8 C     6.0000    0    12.011    2.394472    3.457821   -1.189394
   9 C     6.0000    0    12.011   -1.718139    1.712470    3.238424
  10 C     6.0000    0    12.011   -5.724358   -0.301411    2.377087
  11 C     6.0000    0    12.011   -6.364220   -2.834589   -1.582646
  12 C     6.0000    0    12.011    8.309504   -1.552977    1.125143
  13 C     6.0000    0    12.011    6.817754    2.327765   -1.116828
  14 C     6.0000    0    12.011   -4.202184    1.178244    3.939890
  15 C     6.0000    0    12.011    4.890800    3.960677   -1.870829
  16 C     6.0000    0    12.011   -7.810805   -1.304478   -3.497505
  17 C     6.0000    0    12.011    8.805179   -3.635266   -0.752867
  18 C     6.0000    0    12.011  -10.333778   -1.201110   -3.619581
  19 C     6.0000    0    12.011    8.505846   -6.096257   -0.257759
  20 H     1.0000    0     1.008   -1.530867   -1.450554   -2.357433
  21 H     1.0000    0     1.008    3.318359   -1.981756    2.119517
  22 H     1.0000    0     1.008   -0.557469    2.869549    4.478273
  23 H     1.0000    0     1.008   -5.168590   -4.186688   -2.607066
  24 H     1.0000    0     1.008   -7.643564   -4.018503   -0.458259
  25 H     1.0000    0     1.008   10.067327   -0.485471    1.397830
  26 H     1.0000    0     1.008    7.863339   -2.339103    2.992948
  27 H     1.0000    0     1.008    8.754156    2.740103   -1.663148
  28 H     1.0000    0     1.008   -4.927461    1.927521    5.709052
  29 H     1.0000    0     1.008    5.362854    5.617211   -2.989358
  30 H     1.0000    0     1.008   -6.719677   -0.244909   -4.879273
  31 H     1.0000    0     1.008    9.476977   -3.086112   -2.615381
  32 H     1.0000    0     1.008    1.309769    6.447557   -2.923406
  33 H     1.0000    0     1.008   -8.476367    0.006992    4.706174
  34 H     1.0000    0     1.008  -11.258421   -0.071054   -5.057474
  35 H     1.0000    0     1.008  -11.512590   -2.230633   -2.296962
  36 H     1.0000    0     1.008    8.911193   -7.501079   -1.693573
  37 H     1.0000    0     1.008    7.854080   -6.748779    1.572063

--------------------------------
INTERNAL COORDINATES (ANGSTROEM)
--------------------------------
 O      0   0   0     0.000000000000     0.00000000     0.00000000
 O      1   0   0     6.165008624487     0.00000000     0.00000000
 C      1   2   0     2.403736599547    65.18583200     0.00000000
 C      3   1   2     1.446739803835    91.88033023     0.20113723
 C      2   1   3     2.397079775477    37.56109038   303.41800640
 C      5   2   1     1.394787335044   149.23562110    39.74082646
 C      3   1   2     2.418131811957   118.92454407   180.22422818
 C      7   3   1     1.394944135082    29.97048802   179.97684287
 C      1   2   3     1.363537579240    94.99450392   359.91760120
 C      4   3   1     1.394700989460   119.97707672   270.03289238
 C      2   1   3     1.362302646257    22.93821946   358.50245436
 C      5   2   1     1.493209114625    91.46731365   219.73614375
 C      7   3   1     1.491464481642   149.98974343   179.96083236
 C      7   3   1     1.394705610514    90.03972909   359.97256302
 C     10   4   3     1.394854465527   119.99831248   180.00559934
 C     14   7   3     1.394868416733   119.99077065     0.00000000
 C     12   5   2     1.506114613833   112.98765184    90.00195910
 C     13   7   3     1.506858765777   113.04434118    90.00772679
 C     17  12   5     1.337780721942   124.17437243   242.34736497
 C     18  13   7     1.337804114959   124.19954523   242.43759850
 H      6   5   2     1.088341499714   119.89407049   180.10273428
 H      8   7   3     1.088491143740   119.70049472   179.92782121
 H     10   4   3     1.087483397574   120.93601151     0.00000000
 H     12   5   2     1.098235835329   109.62307362   210.65717831
 H     12   5   2     1.097659441721   110.22127707   325.19892404
 H     13   7   3     1.097818992366   109.79282646   211.16885071
 H     13   7   3     1.098059092217   109.56059215   325.98952071
 H     14   7   3     1.086830317943   120.74849514   180.09253027
 H     15  10   4     1.086731397356   119.21812895   179.99607448
 H     16  14   7     1.086817928634   119.17131835   180.00982506
 H     17  12   5     1.087395369679   117.36987907    63.31593226
 H     18  13   7     1.087306750646   117.34192876    63.44287277
 H      1   2   3     0.972486678572   155.86506763   180.29412434
 H      2   1   3     0.972519531938   106.92409431    97.49827090
 H     19  17  12     1.084429481340   120.44632238   180.47007160
 H     19  17  12     1.084340117306   121.49444129     0.56744796
 H     20  18  13     1.084412214059   120.44426549   180.48940772
 H     20  18  13     1.084339886751   121.50262090     0.57803638

---------------------------
INTERNAL COORDINATES (A.U.)
---------------------------
 O      0   0   0     0.000000000000     0.00000000     0.00000000
 O      1   0   0    11.650177913543     0.00000000     0.00000000
 C      1   2   0     4.542403871226    65.18583200     0.00000000
 C      3   1   2     2.733942016291    91.88033023     0.20113723
 C      2   1   3     4.529824296813    37.56109038   303.41800640
 C      5   2   1     2.635766078296   149.23562110    39.74082646
 C      3   1   2     4.569606880322   118.92454407   180.22422818
 C      7   3   1     2.636062387425    29.97048802   179.97684287
 C      1   2   3     2.576712598074    94.99450392   359.91760120
 C      4   3   1     2.635602908788   119.97707672   270.03289238
 C      2   1   3     2.574378912943    22.93821946   358.50245436
 C      5   2   1     2.821756287317    91.46731365   219.73614375
 C      7   3   1     2.818459408774   149.98974343   179.96083236
 C      7   3   1     2.635611641315    90.03972909   359.97256302
 C     10   4   3     2.635892936523   119.99831248   180.00559934
 C     14   7   3     2.635919300482   119.99077065     0.00000000
 C     12   5   2     2.846144146440   112.98765184    90.00195910
 C     13   7   3     2.847550389818   113.04434118    90.00772679
 C     17  12   5     2.528039191710   124.17437243   242.34736497
 C     18  13   7     2.528083398105   124.19954523   242.43759850
 H      6   5   2     2.056667374641   119.89407049   180.10273428
 H      8   7   3     2.056950160867   119.70049472   179.92782121
 H     10   4   3     2.055045796602   120.93601151     0.00000000
 H     12   5   2     2.075364959229   109.62307362   210.65717831
 H     12   5   2     2.074275733166   110.22127707   325.19892404
 H     13   7   3     2.074577240190   109.79282646   211.16885071
 H     13   7   3     2.075030963152   109.56059215   325.98952071
 H     14   7   3     2.053811654955   120.74849514   180.09253027
 H     15  10   4     2.053624722137   119.21812895   179.99607448
 H     16  14   7     2.053788242554   119.17131835   180.00982506
 H     17  12   5     2.054879447988   117.36987907    63.31593226
 H     18  13   7     2.054711982284   117.34192876    63.44287277
 H      1   2   3     1.837733491388   155.86506763   180.29412434
 H      2   1   3     1.837795575251   106.92409431    97.49827090
 H     19  17  12     2.049274731283   120.44632238   180.47007160
 H     19  17  12     2.049105857733   121.49444129     0.56744796
 H     20  18  13     2.049242100850   120.44426549   180.48940772
 H     20  18  13     2.049105422047   121.50262090     0.57803638

---------------------
BASIS SET INFORMATION
---------------------
There are 3 groups of distinct atoms

 Group   1 Type O   : 7s4p1d contracted to 3s2p1d pattern {511/31/1}
 Group   2 Type C   : 7s4p1d contracted to 3s2p1d pattern {511/31/1}
 Group   3 Type H   : 4s1p contracted to 2s1p pattern {31/1}

Atom   0O    basis set group =>   1
Atom   1O    basis set group =>   1
Atom   2C    basis set group =>   2
Atom   3C    basis set group =>   2
Atom   4C    basis set group =>   2
Atom   5C    basis set group =>   2
Atom   6C    basis set group =>   2
Atom   7C    basis set group =>   2
Atom   8C    basis set group =>   2
Atom   9C    basis set group =>   2
Atom  10C    basis set group =>   2
Atom  11C    basis set group =>   2
Atom  12C    basis set group =>   2
Atom  13C    basis set group =>   2
Atom  14C    basis set group =>   2
Atom  15C    basis set group =>   2
Atom  16C    basis set group =>   2
Atom  17C    basis set group =>   2
Atom  18C    basis set group =>   2
Atom  19C    basis set group =>   2
Atom  20H    basis set group =>   3
Atom  21H    basis set group =>   3
Atom  22H    basis set group =>   3
Atom  23H    basis set group =>   3
Atom  24H    basis set group =>   3
Atom  25H    basis set group =>   3
Atom  26H    basis set group =>   3
Atom  27H    basis set group =>   3
Atom  28H    basis set group =>   3
Atom  29H    basis set group =>   3
Atom  30H    basis set group =>   3
Atom  31H    basis set group =>   3
Atom  32H    basis set group =>   3
Atom  33H    basis set group =>   3
Atom  34H    basis set group =>   3
Atom  35H    basis set group =>   3
Atom  36H    basis set group =>   3
Atom  37H    basis set group =>   3
---------------------------------
AUXILIARY/J BASIS SET INFORMATION
---------------------------------
There are 3 groups of distinct atoms

 Group   1 Type O   : 12s5p4d2f1g contracted to 6s4p3d1f1g pattern {711111/2111/211/2/1}
 Group   2 Type C   : 12s5p4d2f1g contracted to 6s4p3d1f1g pattern {711111/2111/211/2/1}
 Group   3 Type H   : 5s2p1d contracted to 3s1p1d pattern {311/2/1}

Atom   0O    basis set group =>   1
Atom   1O    basis set group =>   1
Atom   2C    basis set group =>   2
Atom   3C    basis set group =>   2
Atom   4C    basis set group =>   2
Atom   5C    basis set group =>   2
Atom   6C    basis set group =>   2
Atom   7C    basis set group =>   2
Atom   8C    basis set group =>   2
Atom   9C    basis set group =>   2
Atom  10C    basis set group =>   2
Atom  11C    basis set group =>   2
Atom  12C    basis set group =>   2
Atom  13C    basis set group =>   2
Atom  14C    basis set group =>   2
Atom  15C    basis set group =>   2
Atom  16C    basis set group =>   2
Atom  17C    basis set group =>   2
Atom  18C    basis set group =>   2
Atom  19C    basis set group =>   2
Atom  20H    basis set group =>   3
Atom  21H    basis set group =>   3
Atom  22H    basis set group =>   3
Atom  23H    basis set group =>   3
Atom  24H    basis set group =>   3
Atom  25H    basis set group =>   3
Atom  26H    basis set group =>   3
Atom  27H    basis set group =>   3
Atom  28H    basis set group =>   3
Atom  29H    basis set group =>   3
Atom  30H    basis set group =>   3
Atom  31H    basis set group =>   3
Atom  32H    basis set group =>   3
Atom  33H    basis set group =>   3
Atom  34H    basis set group =>   3
Atom  35H    basis set group =>   3
Atom  36H    basis set group =>   3
Atom  37H    basis set group =>   3
--------------------------------------------------------------------------
WARNING: There was an error initializing an OpenFabrics device.

  Local host:   ga01
  Local device: mlx5_0
--------------------------------------------------------------------------


           ************************************************************
           *        Program running with 28 parallel MPI-processes    *
           *              working on a common directory               *
           ************************************************************
------------------------------------------------------------------------------
                             ORCA STARTUP CALCULATIONS
                           -- RI-GTO INTEGRALS CHOSEN --
------------------------------------------------------------------------------
------------------------------------------------------------------------------
                   ___                                                        
                  /   \      - P O W E R E D   B Y -                         
                 /     \                                                     
                 |  |  |   _    _      __       _____    __    __             
                 |  |  |  | |  | |    /  \     |  _  \  |  |  /  |          
                  \  \/   | |  | |   /    \    | | | |  |  | /  /          
                 / \  \   | |__| |  /  /\  \   | |_| |  |  |/  /          
                |  |  |   |  __  | /  /__\  \  |    /   |      \           
                |  |  |   | |  | | |   __   |  |    \   |  |\   \          
                \     /   | |  | | |  |  |  |  | |\  \  |  | \   \       
                 \___/    |_|  |_| |__|  |__|  |_| \__\ |__|  \__/        
                                                                              
                      - O R C A' S   B I G   F R I E N D -                    
                                      &                                       
                       - I N T E G R A L  F E E D E R -                       
                                                                              
 v1 FN, 2020, v2 2021, v3 2022-2024                                           
------------------------------------------------------------------------------


----------------------
SHARK INTEGRAL PACKAGE
----------------------

Number of atoms                             ...     38
Number of basis functions                   ...    370
Number of shells                            ...    174
Maximum angular momentum                    ...      2
Integral batch strategy                     ... SHARK/LIBINT Hybrid
RI-J (if used) integral strategy            ... SPLIT-RIJ (Revised 2003 algorithm where possible)
Printlevel                                  ...      1
Contraction scheme used                     ... SEGMENTED contraction
Prescreening option                         ... SCHWARTZ
   Thresh                                   ... 1.000e-10
   Tcut                                     ... 1.000e-11
   Tpresel                                  ... 1.000e-11 
Coulomb Range Separation                    ... NOT USED
Exchange Range Separation                   ... Long Range
   Mu parameter                             ... 2.500e-01
   Scaling (regular/separated)              ... 1.957e-01 8.043e-01
Multipole approximations                    ... NOT USED
Finite Nucleus Model                        ... NOT USED
CABS basis                                  ... NOT available
Auxiliary Coulomb fitting basis             ... AVAILABLE
   # of basis functions in Aux-J            ...   1178
   # of shells in Aux-J                     ...    390
   Maximum angular momentum in Aux-J        ...      4
Auxiliary J/K fitting basis                 ... NOT available
Auxiliary Correlation fitting basis         ... NOT available
Auxiliary 'external' fitting basis          ... NOT available

Checking pre-screening integrals            ... done (  0.0 sec) Dimension = 174
Check shell pair data                       ... done (  0.0 sec)
Shell pair information
Shell pair cut-off parameter TPreSel        ...   1.0e-11
Total number of shell pairs                 ...     15225
Shell pairs after pre-screening             ...     10633
Total number of primitive shell pairs       ...     54929
Primitive shell pairs kept                  ...     24557
          la=0 lb=0:   3344 shell pairs
          la=1 lb=0:   3947 shell pairs
          la=1 lb=1:   1221 shell pairs
          la=2 lb=0:   1251 shell pairs
          la=2 lb=1:    745 shell pairs
          la=2 lb=2:    125 shell pairs

Calculating one electron integrals          ... done (  0.0 sec)
Calculating RI/J V-Matrix + Cholesky decomp.... done (  0.1 sec)
Calculating Nuclear repulsion               ... done (  0.0 sec) ENN=   1415.476981817476 Eh

Diagonalization of the overlap matrix:
Smallest eigenvalue                        ... 2.087e-04
Time for diagonalization                   ...    0.012 sec
Threshold for overlap eigenvalues          ... 1.000e-07
Number of eigenvalues below threshold      ... 0
Time for construction of square roots      ...    0.008 sec
Total time needed                          ...    0.024 sec

-------------------
DFT GRID GENERATION
-------------------

General Integration Accuracy     IntAcc      ... 4.388
Radial Grid Type                 RadialGrid  ... OptM3 with GC (2021)
Angular Grid (max. ang.)         AngularGrid ... 4 (Lebedev-302)
Angular grid pruning method      GridPruning ... 4 (adaptive)
Weight generation scheme         WeightScheme... mBecke (2022)
Basis function cutoff            BFCut       ... 1.0000e-10
Integration weight cutoff        WCut        ... 1.0000e-14
Partially contracted basis set               ... off
Rotationally invariant grid construction     ... off
Angular grids for H and He will be reduced by one unit

Total number of grid points                  ...   177301
Total number of batches                      ...     2790
Average number of points per batch           ...       63
Average number of grid points per atom       ...     4666

--------------------
COSX GRID GENERATION
--------------------

GRIDX 1
-------
General Integration Accuracy     IntAcc      ... 3.816
Radial Grid Type                 RadialGrid  ... OptM3 with GC (2021)
Angular Grid (max. ang.)         AngularGrid ... 1 (Lebedev-50)
Angular grid pruning method      GridPruning ... 4 (adaptive)
Weight generation scheme         WeightScheme... mBecke (2022)
Basis function cutoff            BFCut       ... 1.0000e-10
Integration weight cutoff        WCut        ... 1.0000e-14
Partially contracted basis set               ... on
Rotationally invariant grid construction     ... off
Angular grids for H and He will be reduced by one unit

Total number of grid points                  ...    22505
Total number of batches                      ...      198
Average number of points per batch           ...      113
Average number of grid points per atom       ...      592
UseSFitting                                  ... on

GRIDX 2
-------
General Integration Accuracy     IntAcc      ... 4.020
Radial Grid Type                 RadialGrid  ... OptM3 with GC (2021)
Angular Grid (max. ang.)         AngularGrid ... 2 (Lebedev-110)
Angular grid pruning method      GridPruning ... 4 (adaptive)
Weight generation scheme         WeightScheme... mBecke (2022)
Basis function cutoff            BFCut       ... 1.0000e-10
Integration weight cutoff        WCut        ... 1.0000e-14
Partially contracted basis set               ... on
Rotationally invariant grid construction     ... off
Angular grids for H and He will be reduced by one unit

Total number of grid points                  ...    48572
Total number of batches                      ...      400
Average number of points per batch           ...      121
Average number of grid points per atom       ...     1278
UseSFitting                                  ... on

GRIDX 3
-------
General Integration Accuracy     IntAcc      ... 4.338
Radial Grid Type                 RadialGrid  ... OptM3 with GC (2021)
Angular Grid (max. ang.)         AngularGrid ... 3 (Lebedev-194)
Angular grid pruning method      GridPruning ... 4 (adaptive)
Weight generation scheme         WeightScheme... mBecke (2022)
Basis function cutoff            BFCut       ... 1.0000e-10
Integration weight cutoff        WCut        ... 1.0000e-14
Partially contracted basis set               ... on
Rotationally invariant grid construction     ... off
Angular grids for H and He will be reduced by one unit

Total number of grid points                  ...   106344
Total number of batches                      ...      849
Average number of points per batch           ...      125
Average number of grid points per atom       ...     2799
UseSFitting                                  ... on
Initializing property integral containers    ... done (  0.0 sec)

SHARK setup successfully completed in   1.5 seconds

Maximum memory used throughout the entire STARTUP-calculation: 46.1 MB
[ga01:3759804] 27 more processes have sent help message help-mpi-btl-openib.txt / error in device init
[ga01:3759804] Set MCA parameter "orte_base_help_aggregate" to 0 to see all help / error messages
--------------------------------------------------------------------------
WARNING: There was an error initializing an OpenFabrics device.

  Local host:   ga01
  Local device: mlx5_0
--------------------------------------------------------------------------


           ************************************************************
           *        Program running with 28 parallel MPI-processes    *
           *              working on a common directory               *
           ************************************************************
-------------------------------------------------------------------------------
                                 ORCA GUESS
                   Start orbitals & Density for SCF / CASSCF
-------------------------------------------------------------------------------

------------
SCF SETTINGS
------------
Hamiltonian:
 Density Functional     Method          .... DFT(GTOs)
 Exchange Functional    Exchange        .... WB97X-D3
 Correlation Functional Correlation     .... WB97X-D3
 Gradients option       PostSCFGGA      .... off
 Hybrid DFT is turned on
   Fraction HF Exchange ScalHFX         ....  0.195728
   Scaling of DF-GGA-X  ScalDFX         ....  0.000000
   Scaling of DF-GGA-C  ScalDFC         ....  1.000000
   Scaling of DF-LDA-C  ScalLDAC        ....  1.000000
   Perturbative correction              ....  0.000000
 Long-range corrected/Screened/Range-Separated Hybrid DFT is turned on
   Amount of maximum screened exact exchange              ....  0.804272
   Range separation parameter mu (erf(mu*r12)/r12)        ....  0.250000
 RI-approximation to the Coulomb term is turned on
   Number of AuxJ basis functions       .... 1178
   RIJ-COSX (HFX calculated with COS-X)).... on


General Settings:
 Integral files         IntName         .... honokiol_2
 Hartree-Fock type      HFTyp           .... RHF
 Total Charge           Charge          ....    0
 Multiplicity           Mult            ....    1
 Number of Electrons    NEL             ....  142
 Basis Dimension        Dim             ....  370
 Nuclear Repulsion      ENuc            ....   1415.4769818175 Eh

Convergence Acceleration:
 AO-DIIS                CNVDIIS         .... on
   Start iteration      DIISMaxIt       ....    12
   Startup error        DIISStart       ....  0.200000
   # of expansion vecs  DIISMaxEq       ....     5
   Bias factor          DIISBfac        ....   1.050
   Max. coefficient     DIISMaxC        ....  10.000
 MO-DIIS                CNVKDIIS        .... off
 Trust-Rad. Augm. Hess. CNVTRAH         .... off
 SOSCF                  CNVSOSCF        .... off
 Level Shifting         CNVShift        .... on
   Level shift para.    LevelShift      ....    0.2500
   Turn off err/grad.   ShiftErr        ....    0.0010
 Zerner damping         CNVZerner       .... off
 Static damping         CNVDamp         .... on
   Fraction old density DampFac         ....    0.7000
   Max. Damping (<1)    DampMax         ....    0.9800
   Min. Damping (>=0)   DampMin         ....    0.0000
   Turn off err/grad.   DampErr         ....    0.1000

SCF Procedure:
 Maximum # iterations   MaxIter         ....   125
 SCF integral mode      SCFMode         .... Direct
   Integral package                     .... SHARK and LIBINT hybrid scheme
 Reset frequency        DirectResetFreq ....    20
 Integral Threshold     Thresh          ....  1.000e-10 Eh
 Primitive CutOff       TCut            ....  1.000e-11 Eh

Convergence Tolerance:
 Convergence Check Mode ConvCheckMode   .... Total+1el-Energy
 Convergence forced     ConvForced      .... 0
 Energy Change          TolE            ....  1.000e-06 Eh
 1-El. energy change                    ....  1.000e-03 Eh
 DIIS Error             TolErr          ....  1.000e-05

------------------------------
INITIAL GUESS: MODEL POTENTIAL
------------------------------
Loading Hartree-Fock densities                     ... done
Calculating cut-offs                               ... done
Initializing the effective Hamiltonian             ... done
Setting up the integral package (SHARK)            ... done
Starting the Coulomb interaction                   ... done (   0.0 sec)
Making the grid                                    ... done (   0.2 sec)
Mapping shells                                     ... done
Starting the XC term evaluation                    ... done (   0.0 sec)
  promolecular density results
     # of electrons  =    142.000176144
     EX              =   -113.701474311
     EC              =     -4.720188104
     EX+EC           =   -118.421662414
Transforming the Hamiltonian                       ... done (   0.0 sec)
Diagonalizing the Hamiltonian                      ... done (   0.0 sec)
Back transforming the eigenvectors                 ... done (   0.0 sec)
Now organizing SCF variables                       ... done
                      ------------------
                      INITIAL GUESS DONE (   0.3 sec)
                      ------------------
             **** ENERGY FILE WAS UPDATED (honokiol_2.en.tmp) ****
Finished Guess after   0.9 sec
Maximum memory used throughout the entire GUESS-calculation: 27.1 MB
[ga01:3759922] 27 more processes have sent help message help-mpi-btl-openib.txt / error in device init
[ga01:3759922] Set MCA parameter "orte_base_help_aggregate" to 0 to see all help / error messages
--------------------------------------------------------------------------
WARNING: There was an error initializing an OpenFabrics device.

  Local host:   ga01
  Local device: mlx5_0
--------------------------------------------------------------------------


           ************************************************************
           *        Program running with 28 parallel MPI-processes    *
           *              working on a common directory               *
           ************************************************************

-------------------------------------------------------------------------------------------
                                      ORCA LEAN-SCF
                              memory conserving SCF solver
-------------------------------------------------------------------------------------------

----------------------------------------D-I-I-S--------------------------------------------
Iteration    Energy (Eh)           Delta-E    RMSDP     MaxDP     DIISErr   Damp  Time(sec)
-------------------------------------------------------------------------------------------
               ***  Starting incremental Fock matrix formation  ***
    1    -845.8822884410287770     0.00e+00  2.07e-03  5.51e-02  1.81e-01  0.700   1.4
    2    -846.0453411069920548    -1.63e-01  1.56e-03  3.88e-02  9.97e-02  0.700   0.8
                               ***Turning on AO-DIIS***
    3    -846.1340178779214511    -8.87e-02  8.98e-04  2.14e-02  5.11e-02  0.700   0.8
    4    -846.1872769043607150    -5.33e-02  1.97e-03  4.88e-02  3.56e-02  0.000   0.7
[ga01:3760038] 27 more processes have sent help message help-mpi-btl-openib.txt / error in device init
[ga01:3760038] Set MCA parameter "orte_base_help_aggregate" to 0 to see all help / error messages
    5    -846.3005702325231141    -1.13e-01  1.44e-04  4.24e-03  4.83e-03  0.000   0.8
    6    -846.3007672958028706    -1.97e-04  5.51e-05  1.78e-03  2.57e-03  0.000   0.7
    7    -846.3008092134373328    -4.19e-05  3.19e-05  6.73e-04  5.84e-04  0.000   0.7
               *** Restarting incremental Fock matrix formation ***
                             ****Resetting DIIS****
    8    -846.3008163104705091    -7.10e-06  2.25e-05  3.92e-04  1.86e-04  0.000   1.4
    9    -846.3008186547572222    -2.34e-06  6.30e-06  2.07e-04  1.96e-04  0.000   0.9
   10    -846.3008191444514523    -4.90e-07  5.26e-06  9.91e-05  7.37e-05  0.000   0.8
                 **** Energy Check signals convergence ****

               *****************************************************
               *                     SUCCESS                       *
               *           SCF CONVERGED AFTER  10 CYCLES          *
               *****************************************************

Recomputing exchange energy using gridx3       ... done (    2.200 sec)
Old exchange energy                            :    -37.904394038 Eh
New exchange energy                            :    -37.904384340 Eh
Exchange energy change after final integration :      0.000009699 Eh
Total energy after final integration           :   -846.300809446 Eh
             **** ENERGY FILE WAS UPDATED (honokiol_2.en.tmp) ****

----------------
TOTAL SCF ENERGY
----------------

Total Energy       :       -846.30080944567578 Eh          -23029.01580 eV

Components:
Nuclear Repulsion  :       1415.47698181747637 Eh           38517.08685 eV
Electronic Energy  :      -2261.77780096192782 Eh          -61546.10291 eV
One Electron Energy:      -3958.01139117803450 Eh         -107702.96547 eV
Two Electron Energy:       1696.23359021610668 Eh           46156.86256 eV

Virial components:
Potential Energy   :      -1683.66597742811246 Eh          -45814.88043 eV
Kinetic Energy     :        837.36516798243679 Eh           22785.86463 eV
Virial Ratio       :          2.01067114062646

DFT components:
N(Alpha)           :       71.000064752857 electrons
N(Beta)            :       71.000064752857 electrons
N(Total)           :      142.000129505714 electrons
E(XC)              :      -83.353787934115 Eh       

FOD:
 Fermi smearing:E(HOMO(Eh)) = -0.299141 MUE = -0.120548 gap=   9.719 eV

 N_FOD =  0.000000

---------------
SCF CONVERGENCE
---------------

  Last Energy change         ...    4.8969e-07  Tolerance :   1.0000e-06
  Last MAX-Density change    ...    9.9145e-05  Tolerance :   1.0000e-05
  Last RMS-Density change    ...    5.2609e-06  Tolerance :   1.0000e-06
  Last DIIS Error            ...    7.3739e-05  Tolerance :   1.0000e-05


----------------
ORBITAL ENERGIES
----------------

  NO   OCC          E(Eh)            E(eV) 
   0   2.0000     -19.266089      -524.2569 
   1   2.0000     -19.265650      -524.2450 
   2   2.0000     -10.351431      -281.6767 
   3   2.0000     -10.347902      -281.5807 
   4   2.0000     -10.294670      -280.1322 
   5   2.0000     -10.294457      -280.1264 
   6   2.0000     -10.292695      -280.0785 
   7   2.0000     -10.292303      -280.0678 
   8   2.0000     -10.292224      -280.0657 
   9   2.0000     -10.291784      -280.0537 
  10   2.0000     -10.291037      -280.0334 
  11   2.0000     -10.290790      -280.0266 
  12   2.0000     -10.290711      -280.0245 
  13   2.0000     -10.289048      -279.9792 
  14   2.0000     -10.288926      -279.9759 
  15   2.0000     -10.286994      -279.9233 
  16   2.0000     -10.286674      -279.9146 
  17   2.0000     -10.286216      -279.9022 
  18   2.0000     -10.282243      -279.7941 
  19   2.0000     -10.274414      -279.5810 
  20   2.0000      -1.162063       -31.6213 
  21   2.0000      -1.161855       -31.6157 
  22   2.0000      -0.982174       -26.7263 
  23   2.0000      -0.963051       -26.2059 
  24   2.0000      -0.916085       -24.9279 
  25   2.0000      -0.904549       -24.6140 
  26   2.0000      -0.880888       -23.9702 
  27   2.0000      -0.853737       -23.2314 
  28   2.0000      -0.851779       -23.1781 
  29   2.0000      -0.824968       -22.4485 
  30   2.0000      -0.782614       -21.2960 
  31   2.0000      -0.779657       -21.2155 
  32   2.0000      -0.740665       -20.1545 
  33   2.0000      -0.725564       -19.7436 
  34   2.0000      -0.708055       -19.2671 
  35   2.0000      -0.674963       -18.3667 
  36   2.0000      -0.655633       -17.8407 
  37   2.0000      -0.649977       -17.6868 
  38   2.0000      -0.646991       -17.6055 
  39   2.0000      -0.639880       -17.4120 
  40   2.0000      -0.602535       -16.3958 
  41   2.0000      -0.590864       -16.0782 
  42   2.0000      -0.581413       -15.8210 
  43   2.0000      -0.562435       -15.3046 
  44   2.0000      -0.552859       -15.0441 
  45   2.0000      -0.548148       -14.9159 
  46   2.0000      -0.537149       -14.6166 
  47   2.0000      -0.534135       -14.5346 
  48   2.0000      -0.528413       -14.3789 
  49   2.0000      -0.526421       -14.3247 
  50   2.0000      -0.510570       -13.8933 
  51   2.0000      -0.505904       -13.7663 
  52   2.0000      -0.504902       -13.7391 
  53   2.0000      -0.496751       -13.5173 
  54   2.0000      -0.485626       -13.2146 
  55   2.0000      -0.481706       -13.1079 
  56   2.0000      -0.469081       -12.7643 
  57   2.0000      -0.451930       -12.2976 
  58   2.0000      -0.450349       -12.2546 
  59   2.0000      -0.442360       -12.0372 
  60   2.0000      -0.437158       -11.8957 
  61   2.0000      -0.433800       -11.8043 
  62   2.0000      -0.425490       -11.5782 
  63   2.0000      -0.421777       -11.4771 
  64   2.0000      -0.417023       -11.3478 
  65   2.0000      -0.350979        -9.5506 
  66   2.0000      -0.343823        -9.3559 
  67   2.0000      -0.337358        -9.1800 
  68   2.0000      -0.330816        -9.0020 
  69   2.0000      -0.300335        -8.1725 
  70   2.0000      -0.299141        -8.1400 
  71   0.0000       0.058044         1.5794 
  72   0.0000       0.069720         1.8972 
  73   0.0000       0.080826         2.1994 
  74   0.0000       0.087700         2.3864 
  75   0.0000       0.108700         2.9579 
  76   0.0000       0.112654         3.0655 
  77   0.0000       0.139254         3.7893 
  78   0.0000       0.139903         3.8069 
  79   0.0000       0.155025         4.2184 
  80   0.0000       0.166970         4.5435 
  81   0.0000       0.171435         4.6650 
*Only the first 10 virtual orbitals were printed.

                    ********************************
                    * MULLIKEN POPULATION ANALYSIS *
                    ********************************

------------------------------------------
FOD BASED MULLIKEN REDUCED ORBITAL CHARGES
------------------------------------------
  0 O s       :     0.000000  s :     0.000000
      pz      :     0.000000  p :     0.000000
      px      :     0.000000
      py      :     0.000000
      dz2     :     0.000000  d :     0.000000
      dxz     :    -0.000000
      dyz     :     0.000000
      dx2y2   :     0.000000
      dxy     :     0.000000

  1 O s       :    -0.000000  s :    -0.000000
      pz      :     0.000000  p :     0.000000
      px      :     0.000000
      py      :     0.000000
      dz2     :     0.000000  d :     0.000000
      dxz     :     0.000000
      dyz     :     0.000000
      dx2y2   :     0.000000
      dxy     :     0.000000

  2 C s       :     0.000000  s :     0.000000
      pz      :     0.000000  p :     0.000000
      px      :     0.000000
      py      :     0.000000
      dz2     :     0.000000  d :     0.000000
      dxz     :     0.000000
      dyz     :     0.000000
      dx2y2   :     0.000000
      dxy     :     0.000000

  3 C s       :    -0.000000  s :    -0.000000
      pz      :     0.000000  p :     0.000000
      px      :     0.000000
      py      :     0.000000
      dz2     :     0.000000  d :     0.000000
      dxz     :     0.000000
      dyz     :     0.000000
      dx2y2   :     0.000000
      dxy     :     0.000000

  4 C s       :     0.000000  s :     0.000000
      pz      :     0.000000  p :     0.000000
      px      :     0.000000
      py      :     0.000000
      dz2     :     0.000000  d :     0.000000
      dxz     :     0.000000
      dyz     :     0.000000
      dx2y2   :     0.000000
      dxy     :     0.000000

  5 C s       :     0.000000  s :     0.000000
      pz      :     0.000000  p :     0.000000
      px      :     0.000000
      py      :     0.000000
      dz2     :     0.000000  d :     0.000000
      dxz     :     0.000000
      dyz     :     0.000000
      dx2y2   :     0.000000
      dxy     :     0.000000

  6 C s       :     0.000000  s :     0.000000
      pz      :     0.000000  p :     0.000000
      px      :     0.000000
      py      :     0.000000
      dz2     :     0.000000  d :     0.000000
      dxz     :     0.000000
      dyz     :     0.000000
      dx2y2   :     0.000000
      dxy     :     0.000000

  7 C s       :    -0.000000  s :    -0.000000
      pz      :     0.000000  p :     0.000000
      px      :     0.000000
      py      :     0.000000
      dz2     :     0.000000  d :     0.000000
      dxz     :     0.000000
      dyz     :     0.000000
      dx2y2   :     0.000000
      dxy     :     0.000000

  8 C s       :     0.000000  s :     0.000000
      pz      :     0.000000  p :     0.000000
      px      :     0.000000
      py      :     0.000000
      dz2     :     0.000000  d :     0.000000
      dxz     :     0.000000
      dyz     :     0.000000
      dx2y2   :     0.000000
      dxy     :     0.000000

  9 C s       :     0.000000  s :     0.000000
      pz      :     0.000000  p :     0.000000
      px      :     0.000000
      py      :     0.000000
      dz2     :     0.000000  d :     0.000000
      dxz     :     0.000000
      dyz     :     0.000000
      dx2y2   :     0.000000
      dxy     :     0.000000

 10 C s       :     0.000000  s :     0.000000
      pz      :     0.000000  p :     0.000000
      px      :    -0.000000
      py      :     0.000000
      dz2     :     0.000000  d :     0.000000
      dxz     :     0.000000
      dyz     :     0.000000
      dx2y2   :     0.000000
      dxy     :     0.000000

 11 C s       :    -0.000000  s :    -0.000000
      pz      :     0.000000  p :     0.000000
      px      :     0.000000
      py      :     0.000000
      dz2     :     0.000000  d :     0.000000
      dxz     :     0.000000
      dyz     :     0.000000
      dx2y2   :     0.000000
      dxy     :     0.000000

 12 C s       :    -0.000000  s :    -0.000000
      pz      :     0.000000  p :     0.000000
      px      :     0.000000
      py      :    -0.000000
      dz2     :     0.000000  d :     0.000000
      dxz     :     0.000000
      dyz     :     0.000000
      dx2y2   :     0.000000
      dxy     :     0.000000

 13 C s       :     0.000000  s :     0.000000
      pz      :     0.000000  p :     0.000000
      px      :     0.000000
      py      :     0.000000
      dz2     :     0.000000  d :     0.000000
      dxz     :     0.000000
      dyz     :     0.000000
      dx2y2   :     0.000000
      dxy     :     0.000000

 14 C s       :     0.000000  s :     0.000000
      pz      :     0.000000  p :     0.000000
      px      :     0.000000
      py      :     0.000000
      dz2     :     0.000000  d :     0.000000
      dxz     :     0.000000
      dyz     :     0.000000
      dx2y2   :     0.000000
      dxy     :     0.000000

 15 C s       :    -0.000000  s :    -0.000000
      pz      :     0.000000  p :     0.000000
      px      :     0.000000
      py      :     0.000000
      dz2     :     0.000000  d :     0.000000
      dxz     :     0.000000
      dyz     :     0.000000
      dx2y2   :     0.000000
      dxy     :    -0.000000

 16 C s       :     0.000000  s :     0.000000
      pz      :     0.000000  p :     0.000000
      px      :     0.000000
      py      :     0.000000
      dz2     :     0.000000  d :     0.000000
      dxz     :     0.000000
      dyz     :     0.000000
      dx2y2   :     0.000000
      dxy     :     0.000000

 17 C s       :     0.000000  s :     0.000000
      pz      :     0.000000  p :     0.000000
      px      :     0.000000
      py      :     0.000000
      dz2     :     0.000000  d :     0.000000
      dxz     :     0.000000
      dyz     :     0.000000
      dx2y2   :     0.000000
      dxy     :     0.000000

 18 C s       :    -0.000000  s :    -0.000000
      pz      :     0.000000  p :     0.000000
      px      :     0.000000
      py      :     0.000000
      dz2     :     0.000000  d :     0.000000
      dxz     :    -0.000000
      dyz     :     0.000000
      dx2y2   :     0.000000
      dxy     :     0.000000

 19 C s       :    -0.000000  s :    -0.000000
      pz      :    -0.000000  p :     0.000000
      px      :     0.000000
      py      :     0.000000
      dz2     :     0.000000  d :     0.000000
      dxz     :     0.000000
      dyz     :     0.000000
      dx2y2   :    -0.000000
      dxy     :     0.000000

 20 H s       :     0.000000  s :     0.000000
      pz      :     0.000000  p :     0.000000
      px      :     0.000000
      py      :     0.000000

 21 H s       :    -0.000000  s :    -0.000000
      pz      :     0.000000  p :     0.000000
      px      :     0.000000
      py      :     0.000000

 22 H s       :     0.000000  s :     0.000000
      pz      :     0.000000  p :     0.000000
      px      :     0.000000
      py      :     0.000000

 23 H s       :     0.000000  s :     0.000000
      pz      :    -0.000000  p :     0.000000
      px      :     0.000000
      py      :     0.000000

 24 H s       :     0.000000  s :     0.000000
      pz      :     0.000000  p :     0.000000
      px      :     0.000000
      py      :     0.000000

 25 H s       :     0.000000  s :     0.000000
      pz      :     0.000000  p :     0.000000
      px      :     0.000000
      py      :     0.000000

 26 H s       :     0.000000  s :     0.000000
      pz      :     0.000000  p :     0.000000
      px      :     0.000000
      py      :    -0.000000

 27 H s       :     0.000000  s :     0.000000
      pz      :     0.000000  p :     0.000000
      px      :     0.000000
      py      :     0.000000

 28 H s       :     0.000000  s :     0.000000
      pz      :     0.000000  p :     0.000000
      px      :     0.000000
      py      :     0.000000

 29 H s       :     0.000000  s :     0.000000
      pz      :     0.000000  p :     0.000000
      px      :     0.000000
      py      :     0.000000

 30 H s       :    -0.000000  s :    -0.000000
      pz      :     0.000000  p :     0.000000
      px      :     0.000000
      py      :     0.000000

 31 H s       :     0.000000  s :     0.000000
      pz      :     0.000000  p :     0.000000
      px      :     0.000000
      py      :     0.000000

 32 H s       :     0.000000  s :     0.000000
      pz      :     0.000000  p :     0.000000
      px      :     0.000000
      py      :     0.000000

 33 H s       :     0.000000  s :     0.000000
      pz      :     0.000000  p :     0.000000
      px      :     0.000000
      py      :     0.000000

 34 H s       :     0.000000  s :     0.000000
      pz      :     0.000000  p :     0.000000
      px      :     0.000000
      py      :     0.000000

 35 H s       :     0.000000  s :     0.000000
      pz      :     0.000000  p :     0.000000
      px      :    -0.000000
      py      :     0.000000

 36 H s       :     0.000000  s :     0.000000
      pz      :    -0.000000  p :     0.000000
      px      :     0.000000
      py      :     0.000000

 37 H s       :     0.000000  s :     0.000000
      pz      :     0.000000  p :     0.000000
      px      :     0.000000
      py      :     0.000000



                     *******************************
                     * LOEWDIN POPULATION ANALYSIS *
                     *******************************

----------------------
LOEWDIN ATOMIC CHARGES
----------------------
   0 O :   -0.066459
   1 O :   -0.067480
   2 C :   -0.054678
   3 C :   -0.041348
   4 C :   -0.053428
   5 C :   -0.003584
   6 C :   -0.046433
   7 C :   -0.003177
   8 C :    0.055016
   9 C :   -0.010387
  10 C :    0.053145
  11 C :   -0.029446
  12 C :   -0.031743
  13 C :   -0.024873
  14 C :   -0.079865
  15 C :   -0.080100
  16 C :   -0.021338
  17 C :   -0.020891
  18 C :   -0.065569
  19 C :   -0.069422
  20 H :    0.032730
  21 H :    0.033513
  22 H :    0.032411
  23 H :    0.036699
  24 H :    0.036111
  25 H :    0.036096
  26 H :    0.033432
  27 H :    0.028413
  28 H :    0.025068
  29 H :    0.025266
  30 H :    0.025665
  31 H :    0.026109
  32 H :    0.097366
  33 H :    0.098188
  34 H :    0.023881
  35 H :    0.023620
  36 H :    0.025884
  37 H :    0.021609

-------------------------------
LOEWDIN REDUCED ORBITAL CHARGES
-------------------------------
  0 O s       :     3.413453  s :     3.413453
      pz      :     1.643153  p :     4.626383
      px      :     1.592557
      py      :     1.390673
      dz2     :     0.002301  d :     0.026623
      dxz     :     0.005187
      dyz     :     0.004567
      dx2y2   :     0.004060
      dxy     :     0.010508

  1 O s       :     3.412057  s :     3.412057
      pz      :     1.451584  p :     4.628905
      px      :     1.453950
      py      :     1.723371
      dz2     :     0.006879  d :     0.026518
      dxz     :     0.003478
      dyz     :     0.005179
      dx2y2   :     0.006512
      dxy     :     0.004471

  2 C s       :     2.832944  s :     2.832944
      pz      :     1.015466  p :     3.110038
      px      :     1.047855
      py      :     1.046717
      dz2     :     0.013260  d :     0.111697
      dxz     :     0.019543
      dyz     :     0.016486
      dx2y2   :     0.032386
      dxy     :     0.030022

  3 C s       :     2.830012  s :     2.830012
      pz      :     1.055754  p :     3.096943
      px      :     1.028675
      py      :     1.012513
      dz2     :     0.025655  d :     0.114393
      dxz     :     0.031501
      dyz     :     0.017591
      dx2y2   :     0.020530
      dxy     :     0.019117

  4 C s       :     2.844353  s :     2.844353
      pz      :     1.032876  p :     3.102633
      px      :     1.056519
      py      :     1.013239
      dz2     :     0.023812  d :     0.106442
      dxz     :     0.028902
      dyz     :     0.016533
      dx2y2   :     0.017697
      dxy     :     0.019498

  5 C s       :     2.853385  s :     2.853385
      pz      :     1.022901  p :     3.057386
      px      :     1.037323
      py      :     0.997163
      dz2     :     0.017763  d :     0.092813
      dxz     :     0.025596
      dyz     :     0.011247
      dx2y2   :     0.019118
      dxy     :     0.019089

  6 C s       :     2.844030  s :     2.844030
      pz      :     1.007288  p :     3.092858
      px      :     1.055399
      py      :     1.030171
      dz2     :     0.013055  d :     0.109545
      dxz     :     0.019923
      dyz     :     0.015084
      dx2y2   :     0.030569
      dxy     :     0.030915

[...]

 18 C s       :     2.885091  s :     2.885091
      pz      :     1.033512  p :     3.113784
      px      :     1.075349
      py      :     1.004922
      dz2     :     0.010180  d :     0.069585
      dxz     :     0.028129
      dyz     :     0.003863
      dx2y2   :     0.012467
      dxy     :     0.014946

 19 C s       :     2.886155  s :     2.886155
      pz      :     1.046622  p :     3.117662
      px      :     1.003621
      py      :     1.067418
      dz2     :     0.017363  d :     0.069474
      dxz     :     0.002942
      dyz     :     0.026610
      dx2y2   :     0.011231
      dxy     :     0.011327

 20 H s       :     0.902434  s :     0.902434
      pz      :     0.025510  p :     0.067266
      px      :     0.019913
      py      :     0.021842

 21 H s       :     0.899699  s :     0.899699
      pz      :     0.015067  p :     0.068202
      px      :     0.014457
      py      :     0.038678

 22 H s       :     0.899831  s :     0.899831
      pz      :     0.018401  p :     0.068017
      px      :     0.016811
      py      :     0.032805

 23 H s       :     0.899061  s :     0.899061
      pz      :     0.015075  p :     0.064999
      px      :     0.025894
      py      :     0.024030

 24 H s       :     0.897509  s :     0.897509
      pz      :     0.024567  p :     0.065718
      px      :     0.022391
      py      :     0.018760

 25 H s       :     0.898898  s :     0.898898
      pz      :     0.014526  p :     0.064860
      px      :     0.035563
      py      :     0.014770

 26 H s       :     0.897471  s :     0.897471
      pz      :     0.037145  p :     0.064719
      px      :     0.012433
      py      :     0.015141

 27 H s       :     0.903752  s :     0.903752
      pz      :     0.015231  p :     0.066678
      px      :     0.039828
      py      :     0.011619

 28 H s       :     0.905293  s :     0.905293
      pz      :     0.025892  p :     0.067804
      px      :     0.018858
      py      :     0.023053

 29 H s       :     0.904960  s :     0.904960
      pz      :     0.017434  p :     0.067896
      px      :     0.014751
      py      :     0.035712

 30 H s       :     0.906770  s :     0.906770
      pz      :     0.028923  p :     0.066267
      px      :     0.018095
      py      :     0.019249

 31 H s       :     0.903870  s :     0.903870
      pz      :     0.040624  p :     0.066307
      px      :     0.013526
      py      :     0.012157

 32 H s       :     0.730101  s :     0.730101
      pz      :     0.053273  p :     0.179022
      px      :     0.053603
      py      :     0.072146

 33 H s       :     0.729542  s :     0.729542
      pz      :     0.067368  p :     0.179007
      px      :     0.042568
      py      :     0.069071

 34 H s       :     0.906915  s :     0.906915
      pz      :     0.032461  p :     0.067168
      px      :     0.017272
      py      :     0.017435

 35 H s       :     0.907957  s :     0.907957
      pz      :     0.029153  p :     0.067087
      px      :     0.018793
      py      :     0.019141

 36 H s       :     0.904278  s :     0.904278
      pz      :     0.024858  p :     0.067356
      px      :     0.016854
      py      :     0.025645

 37 H s       :     0.908416  s :     0.908416
      pz      :     0.040256  p :     0.067100
      px      :     0.014444
      py      :     0.012400



                      *****************************
                      * MAYER POPULATION ANALYSIS *
                      *****************************

  NA   - Mulliken gross atomic population
  ZA   - Total nuclear charge
  QA   - Mulliken gross atomic charge
  VA   - Mayer's total valence
  BVA  - Mayer's bonded valence
  FA   - Mayer's free valence

  ATOM       NA         ZA         QA         VA         BVA        FA
  0 O      8.1989     8.0000    -0.1989     2.2420     2.2420     0.0000
  1 O      8.2027     8.0000    -0.2027     2.2424     2.2424    -0.0000
  2 C      6.0007     6.0000    -0.0007     3.8137     3.8137    -0.0000
  3 C      5.9644     6.0000     0.0356     3.7975     3.7975    -0.0000
  4 C      6.1372     6.0000    -0.1372     3.9358     3.9358    -0.0000
  5 C      6.0660     6.0000    -0.0660     3.9357     3.9357    -0.0000
  6 C      6.0846     6.0000    -0.0846     3.9028     3.9028     0.0000
  7 C      6.0451     6.0000    -0.0451     3.8885     3.8885     0.0000
  8 C      5.8664     6.0000     0.1336     4.0474     4.0474     0.0000
  9 C      5.9966     6.0000     0.0034     3.8971     3.8971    -0.0000
 10 C      5.8485     6.0000     0.1515     4.0351     4.0351    -0.0000
 11 C      5.8641     6.0000     0.1359     3.8996     3.8996    -0.0000
 12 C      5.8688     6.0000     0.1312     3.8673     3.8673     0.0000
 13 C      6.0327     6.0000    -0.0327     3.9027     3.9027     0.0000
 14 C      6.0923     6.0000    -0.0923     3.8106     3.8106     0.0000
 15 C      6.0901     6.0000    -0.0901     3.8074     3.8074    -0.0000
 16 C      6.0942     6.0000    -0.0942     4.0621     4.0621    -0.0000
 17 C      6.1141     6.0000    -0.1141     4.0617     4.0617    -0.0000
 18 C      6.0680     6.0000    -0.0680     3.9716     3.9716    -0.0000
 19 C      6.0798     6.0000    -0.0798     3.9536     3.9536    -0.0000
 20 H      1.0009     1.0000    -0.0009     1.0027     1.0027    -0.0000
 21 H      1.0004     1.0000    -0.0004     1.0117     1.0117     0.0000
 22 H      0.9889     1.0000     0.0111     1.0054     1.0054    -0.0000
 23 H      0.9726     1.0000     0.0274     0.9866     0.9866    -0.0000
 24 H      0.9668     1.0000     0.0332     0.9981     0.9981    -0.0000
 25 H      0.9726     1.0000     0.0274     0.9890     0.9890    -0.0000
 26 H      0.9618     1.0000     0.0382     0.9907     0.9907    -0.0000
 27 H      0.9955     1.0000     0.0045     0.9927     0.9927    -0.0000
 28 H      1.0106     1.0000    -0.0106     0.9947     0.9947     0.0000
 29 H      1.0088     1.0000    -0.0088     0.9948     0.9948    -0.0000
 30 H      0.9726     1.0000     0.0274     0.9866     0.9866    -0.0000
 31 H      0.9665     1.0000     0.0335     0.9860     0.9860     0.0000
 32 H      0.8178     1.0000     0.1822     1.0099     1.0099     0.0000
 33 H      0.8172     1.0000     0.1828     1.0094     1.0094    -0.0000
 34 H      0.9584     1.0000     0.0416     0.9786     0.9786    -0.0000
 35 H      0.9615     1.0000     0.0385     0.9913     0.9913    -0.0000
 36 H      0.9518     1.0000     0.0482     0.9792     0.9792     0.0000
 37 H      0.9601     1.0000     0.0399     0.9887     0.9887     0.0000

  Mayer bond orders larger than 0.100000
B(  0-O ,  8-C ) :   1.2085 B(  0-O , 32-H ) :   0.9621 B(  1-O , 10-C ) :   1.2127 
B(  1-O , 33-H ) :   0.9626 B(  2-C ,  3-C ) :   0.9479 B(  2-C ,  7-C ) :   1.4281 
B(  2-C ,  8-C ) :   1.3634 B(  3-C ,  5-C ) :   1.3723 B(  3-C ,  9-C ) :   1.4063 
B(  4-C ,  5-C ) :   1.4226 B(  4-C , 10-C ) :   1.3661 B(  4-C , 11-C ) :   1.0249 
B(  5-C , 20-H ) :   0.9903 B(  6-C ,  7-C ) :   1.3546 B(  6-C , 12-C ) :   1.0109 
B(  6-C , 13-C ) :   1.4205 B(  7-C , 21-H ) :   0.9897 B(  8-C , 15-C ) :   1.3471 
B(  9-C , 14-C ) :   1.3836 B(  9-C , 22-H ) :   0.9840 B( 10-C , 14-C ) :   1.3423 
B( 11-C , 16-C ) :   1.0372 B( 11-C , 23-H ) :   0.9268 B( 11-C , 24-H ) :   0.9333 
B( 12-C , 17-C ) :   1.0370 B( 12-C , 25-H ) :   0.9303 B( 12-C , 26-H ) :   0.9378 
B( 13-C , 15-C ) :   1.3723 B( 13-C , 27-H ) :   0.9864 B( 14-C , 28-H ) :   0.9862 
B( 15-C , 29-H ) :   0.9836 B( 16-C , 18-C ) :   2.0183 B( 16-C , 30-H ) :   0.9605 
B( 17-C , 19-C ) :   1.9966 B( 17-C , 31-H ) :   0.9663 B( 18-C , 34-H ) :   0.9585 
B( 18-C , 35-H ) :   0.9617 B( 19-C , 36-H ) :   0.9591 B( 19-C , 37-H ) :   0.9635 


-------
TIMINGS
-------

Total SCF time: 0 days 0 hours 0 min 9 sec 

Total time                  ....       9.040 sec
Sum of individual times     ....       8.953 sec  ( 99.0%)

SCF preparation             ....       0.698 sec  (  7.7%)
Fock matrix formation       ....       7.527 sec  ( 83.3%)
  Startup                   ....       0.031 sec  (  0.4% of F)
  Split-RI-J                ....       0.433 sec  (  5.7% of F)
  Chain of spheres X        ....       6.335 sec  ( 84.2% of F)
  XC integration            ....       0.654 sec  (  8.7% of F)
    Basis function eval.    ....       0.121 sec  ( 18.5% of XC)
    Density eval.           ....       0.090 sec  ( 13.7% of XC)
    XC-Functional eval.     ....       0.041 sec  (  6.3% of XC)
    XC-Potential eval.      ....       0.073 sec  ( 11.1% of XC)
Diagonalization             ....       0.000 sec  (  0.0%)
Density matrix formation    ....       0.136 sec  (  1.5%)
Total Energy calculation    ....       0.040 sec  (  0.4%)
Population analysis         ....       0.103 sec  (  1.1%)
Orbital Transformation      ....       0.076 sec  (  0.8%)
Orbital Orthonormalization  ....       0.000 sec  (  0.0%)
DIIS solution               ....       0.374 sec  (  4.1%)
Finished LeanSCF after   9.1 sec

Maximum memory used throughout the entire LEANSCF-calculation: 47.4 MB


-------------------------------------------------------------------------------
                          DFT DISPERSION CORRECTION                            
                                                                               
                              DFTD3 V3.1  Rev 1                                
                              USING zero damping                               
-------------------------------------------------------------------------------
The omegaB97X-D3 functional is recognized. Fit by Chai et al.
Active option DFTDOPT                   ...         3   

molecular C6(AA) [au] = 16057.657215 


            DFT-D V3
 parameters
 s6 scaling factor         :     1.0000 
 rs6 scaling factor        :     1.2810 
 s8 scaling factor         :     1.0000 
 rs8 scaling factor        :     1.0940 
 Damping factor alpha6     :    14.0000 
 Damping factor alpha8     :    16.0000 
 ad hoc parameters k1-k3   :    16.0000     1.3333    -4.0000 

 Edisp/kcal,au: -9.940803988299  -0.015841677837 
 E6   /kcal   :  -4.720073338 
 E8   /kcal   :  -5.220730651 
 % E8         :  52.518193265 

-------------------------   ----------------
Dispersion correction           -0.015841678
-------------------------   ----------------


-------------------------   --------------------
FINAL SINGLE POINT ENERGY      -846.327749923788
-------------------------   --------------------

                                *** OPTIMIZATION RUN DONE ***

--------------------------------------------------------------------------
WARNING: There was an error initializing an OpenFabrics device.

  Local host:   ga01
  Local device: mlx5_0
--------------------------------------------------------------------------


           ************************************************************
           *        Program running with 28 parallel MPI-processes    *
           *              working on a common directory               *
           ************************************************************

------------------------------------------------------------------------------
                              ORCA PROPERTY CALCULATIONS
------------------------------------------------------------------------------

GBWName                                 ... honokiol_2.gbw
Number of atoms                         ...     38
Number of basis functions               ...    370
Max core memory                         ...   5000 MB

Electric properties:
Dipole moment                           ... YES
Quadrupole moment                       ...  NO
Static polarizability (Dipole/Dipole)   ...  NO
Static polarizability (Dipole/Quad.)    ...  NO
Static polarizability (Quad./Quad.)     ...  NO
Static polarizability (Velocity)        ...  NO

Atomic electric properties:
Dipole moment                           ...  NO
Quadrupole moment                       ...  NO
Static polarizability                   ...  NO

Choice of electric origin               ... Center of mass
Position of electric origin             ...    -0.034745     0.141246     0.057322

General magnetic properties:
Magnetizability                         ...  NO

EPR properties:
g-Tensor (aka g-matrix)                 ...  NO
Zero-Field splitting spin-orbit         ...  NO
Zero-field splitting spin-spin          ...  NO
Hyperfine couplings                     ...  NO (   0 nuclei)
Quadrupole couplings                    ...  NO (   0 nuclei)
Contact density                         ...  NO (   0 nuclei)

NMR properties:
Chemical shifts                         ...  NO (   0 nuclei)
Spin-rotation constants                 ...  NO (   0 nuclei)
Spin-spin couplings                     ...  NO (   0 nuclei,    0 pairs)

Choice of magnetic origin               ... GIAO
Position of magnetic origin             ...     0.000000     0.000000     0.000000

Properties with geometric perturbations:
SCF Hessian                             ...  NO
IR spectrum                             ...  NO
VCD spectrum                            ...  NO
X-ray spectroscopy properties:
SCF XES/XAS/RIXS spectra                ...  NO


-------------
DIPOLE MOMENT
-------------

Method             : SCF
Type of density    : Electron Density
Multiplicity       :   1
Irrep              :   0
Energy             :  -846.3119082459505762 Eh
Relativity type    : 
Basis              : AO
                                X                 Y                 Z
Electronic contribution:     -1.899757557      10.693153713       4.567190885
Nuclear contribution   :      2.199504509      -9.854718116      -4.319736557
                        -----------------------------------------
Total Dipole Moment    :      0.299746952       0.838435598       0.247454329
                        -----------------------------------------
Magnitude (a.u.)       :      0.924151574
Magnitude (Debye)      :      2.349006622



--------------------
Rotational spectrum 
--------------------
 
Rotational constants in cm-1:             0.016394             0.006256             0.005009 
Rotational constants in MHz :           491.493255           187.537701           150.170242 

Dipole components along the rotational axes: 
x,y,z [a.u.] :     0.368779     0.847015     0.024976 
x,y,z [Debye]:     0.937363     2.152941     0.063485 

 

Dipole moment calculation done in   0.0 sec 

Maximum memory used throughout the entire PROP-calculation: 22.3 MB
[ga01:3772754] 27 more processes have sent help message help-mpi-btl-openib.txt / error in device init
[ga01:3772754] Set MCA parameter "orte_base_help_aggregate" to 0 to see all help / error messages
--------------------------------------------------------------------------
WARNING: There was an error initializing an OpenFabrics device.

  Local host:   ga01
  Local device: mlx5_0
--------------------------------------------------------------------------
[ga01:3772870] 27 more processes have sent help message help-mpi-btl-openib.txt / error in device init
[ga01:3772870] Set MCA parameter "orte_base_help_aggregate" to 0 to see all help / error messages

--------------------------------
SUGGESTED CITATIONS FOR THIS RUN
--------------------------------

Below you find a list of papers that are relevant to this ORCA run
We neither can nor want to force you to cite these papers, but we appreciate if you do
You receive ORCA, which is the product of decades of hard work by many enthusiastic individuals, for free
The only thing we kindly ask in return is that you cite our papers,
We deeply appreciate it, if you show your appreciation for ORCA by not just citing the generic ORCA reference.

Please note that relegating all ORCA citations to the supporting information does *not* help us.
SI sections are not indexed - citations you put there will not count into any citation statistics
But we need these citations in order to attract the funding resources that allow us to do what we are doing

Therefore, if you are a happy ORCA user, please consider citing a few of the papers listed below in the main body of your paper

In addition to the list printed below, the program has created the file honokiol_2.bibtex that contains the list in bibtex format
You can import this file easily into all common literature databanks and citation aid programs


List of essential papers. We consider these as the minimum necessary citations

  1. Neese,F.
     Software update: the ORCA program system, version 5.0
     WIRES Comput. Molec. Sci., 2022 12(1)e1606
     doi.org/10.1002/wcms.1606

List of papers to cite with high priority. The work reported in these papers was absolutely
necessary for this run to complete.
Our perspective: the developers of density functionals and basis sets usually get cited in chemistry papers
Good! But without the algorithms to do something with them, the functionals or basis sets would not do anything.
Hence, in our opinion, the algorithm design and method developments papers are equally worthy of getting cited

  1. Neese,F.
     An improvement of the resolution of the identity approximation for the formation of the Coulomb matrix
     J. Comp. Chem., 2003 24(14)1740-1747
     doi.org/10.1002/jcc.10318
  2. Neese,F.; Wennmohs,F.; Hansen,A.; Becker,U.
     Efficient, approximate and parallel Hartree-Fock and hybrid DFT calculations. A 'chain-of-spheres' algorithm for the Hartree-Fock exchange
     Chem. Phys., 2009 356(1-3)98-109
     doi.org/10.1016/j.chemphys.2008.10.036
  3. Helmich-Paris,B.; de Souza,B.; Neese,F.; Izsák,R.
     An improved chain of spheres for exchange algorithm
     J. Chem. Phys., 2021 155 104109
     doi.org/doi: 10.1063/5.0058766.
  4. Neese,F.
     The SHARK Integral Generation and Digestion System
     J. Comp. Chem., 2022  1-16
     doi.org/10.1002/jcc.26942
  5. Grimme,S.; Antony,J.; Ehrlich,S.; Krieg,H.
     A consistent and accurate ab initio parametrization of density functional dispersion correction (DFT-D) for the 94 elements H-Pu
     J. Chem. Phys., 2010 132 154104
     doi.org/10.1063/1.3382344

List of suggested additional citations. These are papers that are important in the 'surrounding' of 
of this run, or papers that preceded the highly important papers. If you like your results we are grateful for a citation.

  1. Izsak,R.; Neese,F.
     An overlap fitted chain of spheres exchange method
     J. Chem. Phys., 2011 135 144105
     doi.org/10.1063/1.3646921
  2. Izsak,R.; Hansen,A.; Neese,F.
     The resolution of identity and chain of spheres approximations for the LPNO-CCSD singles Fock term
     Molec. Phys., 2012 110 2413-2417
     doi.org/10.1080/00268976.2012.687466
  3. Neese,F.
     The ORCA program system
     WIRES Comput. Molec. Sci., 2012 2(1)73-78
     doi.org/10.1002/wcms.81
  4. Izsak,R.; Neese,F.; Klopper,W.
     Robust fitting techniques in the chain of spheres approximation to the Fock exchange: The role of the complementary space
     J. Chem. Phys., 2013 139 
     doi.org/10.1063/1.4819264
  5. Neese,F.
     Software update: the ORCA program system, version 4.0
     WIRES Comput. Molec. Sci., 2018 8(1)1-6
     doi.org/10.1002/wcms.1327
  6. Neese,F.; Wennmohs,F.; Becker,U.; Riplinger,C.
     The ORCA quantum chemistry program package
     J. Chem. Phys., 2020 152 Art. No. L224108
     doi.org/10.1063/5.0004608

Timings for individual modules:

Sum of individual times          ...      397.181 sec (=   6.620 min)
Startup calculation              ...       50.220 sec (=   0.837 min)  12.6 %
SCF iterations                   ...      246.206 sec (=   4.103 min)  62.0 %
Property calculations            ...        1.051 sec (=   0.018 min)   0.3 %
SCF Gradient evaluation          ...       99.450 sec (=   1.658 min)  25.0 %
Geometry relaxation              ...        0.254 sec (=   0.004 min)   0.1 %
                             ****ORCA TERMINATED NORMALLY****
TOTAL RUN TIME: 0 days 0 hours 6 minutes 58 seconds 346 msec
