
                                 *****************
                                 * O   R   C   A *
                                 *****************

                                            #,                                       
                                            ###                                      
                                            ####                                     
                                            #####                                    
                                            ######                                   
                                           ########,                                 
                                     ,,################,,,,,                         
                               ,,#################################,,                 
                          ,,##########################################,,             
                       ,#########################################, ''#####,          
                    ,#############################################,,   '####,        
                  ,##################################################,,,,####,       
                ,###########''''           ''''###############################       
              ,#####''   ,,,,##########,,,,          '''####'''          '####       
            ,##' ,,,,###########################,,,                        '##       
           ' ,,###''''                  '''############,,,                           
         ,,##''                                '''############,,,,        ,,,,,,###''
      ,#''                                            '''#######################'''  
     '                                                          ''''####''''         
             ,#######,   #######,   ,#######,      ##                                
            ,#'     '#,  ##    ##  ,#'     '#,    #''#        ,####,   ,####,        
            ##       ##  ##   ,#'  ##            #'  '#       #'       #'  '#        
            ##       ##  #######   ##           ,######,      #####,   #    #        
            '#,     ,#'  ##    ##  '#,     ,#' ,#      #,     #,   #   #,  ,#        
             '#######'   ##     ##  '#######'  #'      '#     '####' # '####'        



                #########################################################
                #                        -***-                          #
                #          Department of theory and spectroscopy        #
                #                                                       #
                #                      Frank Neese                      #
                #                                                       #
                #     Directorship, Architecture, Infrastructure        #
                #                    SHARK, DRIVERS                     #
                #        Core code/Algorithms in most modules           #
                #                                                       #
                #        Max Planck Institute fuer Kohlenforschung      #
                #                Kaiser Wilhelm Platz 1                 #
                #                 D-45470 Muelheim/Ruhr                 #
                #                      Germany                          #
                #                                                       #
                #                  All rights reserved                  #
                #                        -***-                          #
                #########################################################


                         Program Version 6.0.1  -  RELEASE   -


 With contributions from (in alphabetic order):
[Max-Planck-Institut fuer Kohlenforschung]                               
  Daniel Aravena         : Magnetic Suceptibility                        
  Michael Atanasov       : Ab Initio Ligand Field Theory (pilot matlab implementation)
  Alexander A. Auer      : GIAO ZORA, VPT2 properties, NMR spectrum      
  Ute Becker             : All parallelization in ORCA, NUMFREQ, NUMCALC 
  Giovanni Bistoni       : ED, misc. LED, open-shell LED, HFLD           
  Martin Brehm           : Molecular dynamics                            
  Dmytro Bykov           : pre 5.0 version of the SCF Hessian            
  Marcos Casanova-Páez   : Triplet and SCS-CIS(D). UHF-(DLPNO)-IP/EA/STEOM-CCSD. UHF-CVS-IP/STEOM-CCSD   
  Vijay G. Chilkuri      : MRCI spin determinant printing, contributions to CSF-ICE 
  Pauline Colinet        : FMM embedding                                 
  Dipayan Datta          : RHF DLPNO-CCSD density                        
  Achintya Kumar Dutta   : EOM-CC, STEOM-CC                              
  Nicolas Foglia         : Exact transition moments, OPA infrastructure, MCD improvements    
  Dmitry Ganyushin       : Spin-Orbit,Spin-Spin,Magnetic field MRCI      
  Miquel Garcia-Rates    : C-PCM and meta-GGA Hessian, CCSD/C-PCM, Gaussian charge scheme 
  Tiago L. C. Gouveia    : GS-ROHF, GS-ROCIS                             
  Yang Guo               : DLPNO-NEVPT2, F12-NEVPT2, CIM, IAO-localization        
  Andreas Hansen         : Spin unrestricted coupled pair/coupled cluster methods 
  Ingolf Harden          : AUTO-CI MPn and infrastructure                
  Benjamin Helmich-Paris : MC-RPA, TRAH-(SCF,CASSCF), AVAS, COSX integrals, SCF dyn. polar. 
  Lee Huntington         : MR-EOM, pCC                                   
  Robert Izsak           : Overlap fitted RIJCOSX, COSX-SCS-MP3, EOM     
  Riya Kayal             : Wick's Theorem for AUTO-CI, AUTO-CI UHF-CCSDT 
  Emily Kempfer          : AUTO-CI, RHF CISDT and CCSDT                  
  Christian Kollmar      : KDIIS, OOCD, Brueckner-CCSD(T), CCSD density, CASPT2, CASPT2-K, improved NEVPT2 
  Axel Koslowski         : Symmetry handling                             
  Simone Kossmann        : meta-GGA functionals, TD-DFT gradient, OOMP2, (MP2 Hessian; deprecated post 5.0) 
  Lucas Lang             : DCDCAS                                        
  Marvin Lechner         : AUTO-CI (C++ implementation), FIC-MRCC        
  Spencer Leger          : CASSCF response                               
  Dagmar Lenk            : GEPOL surface, SMD, ORCA-2-JSON               
  Dimitrios Liakos       : Extrapolation schemes; Compound Job, initial MDCI parallelization 
  Dimitrios Manganas     : Further ROCIS development; embedding schemes. LFT, Crystal Embedding 
  Dimitrios Pantazis     : SARC Basis sets                               
  Anastasios Papadopoulos: AUTO-CI, single reference methods and gradients 
  Taras Petrenko         : pre 6.0 DFT Hessian and TD-DFT gradient, (ASA, deprecated), ECA, 1-Electron XAS/XES, NRVS 
  Peter Pinski           : DLPNO-MP2, DLPNO-MP2 Gradient                 
  Christoph Reimann      : Effective Core Potentials                     
  Marius Retegan         : Local ZFS, SOC                                
  Christoph Riplinger    : Optimizer, TS searches, QM/MM, DLPNO-CCSD(T), (RO)-DLPNO pert. Triples 
  Michael Roemelt        : Original ROCIS implementation                 
  Masaaki Saitow         : Open-shell DLPNO-CCSD energy and density      
  Barbara Sandhoefer     : DKH picture change effects                    
  Kantharuban Sivalingam : CASSCF convergence/infrastructure, NEVPT2 and variants, FIC-MRCI 
  Bernardo de Souza      : ESD, SOC TD-DFT                               
  Georgi L. Stoychev     : AutoAux, RI-MP2 NMR, DLPNO-MP2 response, X2C  
  Van Anh Tran           : RI-MP2 g-tensors                              
  Willem Van den Heuvel  : Paramagnetic NMR                              
  Zikuan Wang            : NOTCH, Electric field optimization            
  Frank Wennmohs         : Technical directorship and infrastructure     
  Hang Xu                : AUTO-CI-Response properties                   
                                                                         
[FACCTs GmbH]                                                            
  Markus Bursch, Miquel Garcia-Rates, Christoph Riplinger, Bernardo de Souza, Georgi L. Stoychev 
                                                                 
  APM, Basis sets (HGBS, AHGBS, def-TZVP (Ac-Lr), def2-XVPD (La-Lu)), CI-OPT, improved COSX, DLPNO-Multilevel,           
  DOCKER, DRACO, updates on ESD, GOAT, IRC, LR-CPCM, MBIS, meta-GGA TD-DFT gradient, ML-optimized integration grids, 
  MM, NACMEs, nearIR, NEB, NEB-TS, NL-DFT gradient (VV10), 2- and 3-layer-ONIOM, interface openCOSMO-RS, QMMM,   
  Crystal-QMMM, SF, symmetry and pop. for TD-DFT, r2SCAN hybrids, SOLVATOR                                   
                                                                         
[Other institutions]                                                     
  V. Asgeirsson          : NEB                                           
  Christoph Bannwarth    : sTDA-DFT, sTD-DFT, PBEh-3c, B97-3c, D3        
  Sebastian Ehlert       : rSCAN, r2SCAN, r2SCAN-3c, D4, dhf basis sets  
  Marvin Friede          : D4 for Fr, Ra, Ac-Lr                          
  Lars Goerigk           : TD-DFT with DH, B97 family of functionals     
  Stefan Grimme          : VdW corrections, initial TS optimization, DFT functionals, gCP, sTDA/sTD-DF 
  Waldemar Hujo          : DFT-NL                                        
  H. Jonsson             : NEB                                           
  Holger Kruse           : gCP                                           
  Marcel Mueller         : wB97X-3c, vDZP basis set                      
  Hagen Neugebauer       : wr2SCAN                                       
  Tobias Risthaus        : range-separated hybrid DFT                    
  Lukas Wittmann         : regularized MP2, r2SCAN double-hybrids, wr2SCAN        
                                                                         
We gratefully acknowledge several colleagues who have allowed us to      
interface, adapt or use parts of their codes:                            
  Ed Valeev, F. Pavosevic, A. Kumar             : LibInt (2-el integral package), F12 methods 
  Garnet Chan, S. Sharma, J. Yang, R. Olivares  : DMRG                   
  Ulf Ekstrom                                   : XCFun DFT Library      
  Mihaly Kallay                                 : mrcc  (arbitrary order and MRCC methods)
  Frank Weinhold                                : gennbo (NPA and NBO analysis)           
  Simon Mueller                                 : openCOSMO-RS                            
  Christopher J. Cramer and Donald G. Truhlar   : smd solvation model                     
  S Lehtola, MJT Oliveira, MAL Marques          : LibXC Library                           
  Liviu Ungur et al                             : ANISO software                          


 Your calculation uses the libint2 library for the computation of 2-el integrals
 For citations please refer to: http://libint.valeyev.net

 Your ORCA version has been built with support for libXC version: 6.2.2
 For citations please refer to: https://libxc.gitlab.io

 This ORCA versions uses:
   CBLAS   interface :  Fast vector & matrix operations
   LAPACKE interface :  Fast linear algebra routines
   SCALAPACK package :  Parallel linear algebra routines
   Shared memory     :  Shared parallel matrices
   BLAS/LAPACK       :  OpenBLAS 0.3.27  USE64BITINT DYNAMIC_ARCH NO_AFFINITY SkylakeX SINGLE_THREADED
        Core in use  :  SkylakeX
   Copyright (c) 2011-2014, The OpenBLAS Project


NOTE: MaxCore=3500 MB was set to SCF,MP2,MDCI,CIPSI,MRCI and CIS
      => If you want to overwrite this, your respective input block should be placed after the MaxCore statement
Your calculation utilizes the atom-pairwise dispersion correction
with the zero-damping scheme (D30)


XCFun DFT library Copyright 2009-2010 Ulf Ekstrom and contributors.
See http://admol.org/xcfun for more information.
This is free software; see the source code for copying conditions.
There is ABSOLUTELY NO WARRANTY; not even for MERCHANTABILITY or FITNESS FOR A PARTICULAR PURPOSE.
For details see the documentation.
Scientific users of this library should cite U. Ekstrom, L. Visscher, R. Bast, A. J. Thorvaldsen and K. Ruud;
J.Chem.Theor.Comp. 2010, DOI: 10.1021/ct100117s
XCFun Version 0.99 

Warning: RI is on but no J-basis has been assigned. Assigning Def2/J (nothing to worry about!)
================================================================================

----- Orbital basis set information -----
Your calculation utilizes the basis: def2-TZVPP
   F. Weigend and R. Ahlrichs, Phys. Chem. Chem. Phys. 7, 3297 (2005).

----- AuxJ basis set information -----
Your calculation utilizes the auxiliary basis: def2/J
   F. Weigend, Phys. Chem. Chem. Phys. 8, 1057 (2006).

================================================================================
                                        WARNINGS
                       Please study these warnings very carefully!
================================================================================


WARNING: your system is open-shell and RHF/RKS was chosen
  ===> : WILL SWITCH to UHF/UKS


================================================================================
                                       INPUT FILE
================================================================================
NAME = c60_o2_SP_20.inp
|  1> ! wB97X-D3 def2-TZVPP TightSCF RIJCOSX SP
|  2> 
|  3> %pal
|  4> nprocs 28
|  5> end
|  6> 
|  7> %maxcore 3500
|  8> 
|  9> 
| 10> * xyz -1 2
| 11>   C           3.34853667348258     -1.88226764902592      0.36528950653441
| 12>   C           3.63642768581380     -0.45524677677275      0.38107325071857
| 13>   C           3.23775800448316      0.31631699668541      1.47058133150450
| 14>   C           2.66745629971296     -2.46627266954391      1.43395299585429
| 15>   C           3.02171090406058     -2.25047838831512     -0.99474878191219
| 16>   C           3.49598737680814      0.05097418712171     -0.96869852160427
| 17>   C           2.68598267602449      1.64476726209003      1.25125180448746
| 18>   C           2.52874897742302     -0.28953928818019      2.57397123520567
| 19>   C           1.63111787073055     -3.45104998353281      1.17055103551472
| 20>   C           2.24735609719887     -1.66216134087861      2.55945329762279
| 21>   C           2.02864547203895     -3.19286128857746     -1.24778518760448
| 22>   C           3.10476834723120     -1.04832216499397     -1.81422280627820
| 23>   C           2.92995424472626      1.31788261254026     -1.17635917275869
| 24>   C           1.61056920731808      1.84614385299324      2.18872086046184
| 25>   C           2.53223412603951      2.10586926944055     -0.05187689663857
| 26>   C           1.50859368457373      0.64844243983801      2.99026720992919
| 27>   C           1.32262629318381     -3.80795814498993     -0.13444105111261
| 28>   C           0.56569379754015     -3.24400999858819      2.13813603367533
| 29>   C           0.94760802454338     -2.12746073847809      2.98621897556810
| 30>   C           1.08567172960385     -2.99196703413259     -2.32696340368529
| 31>   C           2.18437020036989     -0.84361649417828     -2.83895418638582
| 32>   C           1.95549700935351      1.54050673949873     -2.21749092266864
| 33>   C           0.48647069679239      2.60312222774867      1.83693188065084
| 34>   C           1.39603805607433      2.91958788379368     -0.40076311490617
| 35>   C           0.25423007302208      0.21199840521536      3.38339769870481
| 36>   C          -0.06348765567954     -3.98147042141853     -0.53325260945552
| 37>   C          -0.75818363046902     -3.41060426847133      1.75697937083452
| 38>   C          -0.02702012322037     -1.21815247064155      3.40286945998264
| 39>   C          -0.20279357041128     -3.47610617377247     -1.88972789868344
| 40>   C           1.16567527684721     -1.82930601540113     -3.11142995472614
| 41>   C           1.60601926110323      0.48124218003832     -3.04545576244151
| 42>   C           0.95845550189634      2.51950128533984     -1.75137849398394
| 43>   C           0.58061993758467      3.39508467464143      0.61291827865948
| 44>   C          -0.85281429126167      2.11659996285737      2.18321190138888
| 45>   C          -0.93176008020956      0.93387831019381      2.97338985380593
| 46>   C          -1.08039097266830     -3.79113350674956      0.39205418306970
| 47>   C          -1.77236218957854     -2.46831331891022      2.20327407979701
| 48>   C          -1.39919330386898     -1.39023845772013      3.00612030234901
| 49>   C          -1.37030436136122     -2.80535054440527     -2.25548525133379
| 50>   C          -0.04312153063696     -1.12178433467927     -3.47584600603458
| 51>   C           0.23367089623792      0.30959476242085     -3.44166702735252
| 52>   C          -0.38168174284762      2.35441899779818     -2.13903767398074
| 53>   C          -1.51053055878399      3.13426851789882      0.01480854412246
| 54>   C          -1.88524882892066      2.30111223832010      1.15292452566293
| 55>   C          -1.95259818303956     -0.06432216050637      2.75264043852654
| 56>   C          -2.29660139054522     -3.09060299221098      0.00993005431830
| 57>   C          -2.72597350014891     -2.28981403852877      1.13138515483001
| 58>   C          -2.43121787727127     -2.61096512296536     -1.29528037614783
| 59>   C          -1.28443779349322     -1.60232158002899     -3.07285042770904
| 60>   C          -0.73105092927780      1.20602880037117     -2.99277472500441
| 61>   C          -1.54251894202606      2.55497218719247     -1.24506999202192
| 62>   C          -2.81296312234091      1.28609090417941      0.91611205138825
| 63>   C          -2.87711217620099      0.09373995065556      1.73159174166400
| 64>   C          -3.28175247374107     -1.02062251440841      0.90814323055864
| 65>   C          -3.00577432404199     -1.29241629986452     -1.52465544047156
| 66>   C          -2.30105633736629     -0.67808619969421     -2.63083094689823
| 67>   C          -2.01996771994837      0.69364219665526     -2.59839510714134
| 68>   C          -2.46736588749356      1.47959368814580     -1.48756184536541
| 69>   C          -3.16466573966373      0.90738698795490     -0.43056922902872
| 70>   C          -3.42544430904319     -0.52341646144897     -0.44193280648318
| 71>   H           0.67287825217026      4.84293932470753      4.54332872567106
| 72>   C          -0.26239887578003      5.41901366588066      4.49296481761272
| 73>   H          -0.38794865104234      5.97286173581385      5.43510586839025
| 74>   H           0.60007204594880      7.09260878001680      3.40577494479695
| 75>   C          -0.23331355137022      6.38191152857766      3.32257076896453
| 76>   O           0.00242237745795      5.68236507424769      2.10026354411728
| 77>   H          -1.09834989373922      4.71199605953096      4.39284858930570
| 78>   C          -1.04688473363713      5.10162523365486      1.51903734112055
| 79>   C          -0.58891244202667      4.26716377949136      0.31265849628216
| 80>   O          -2.18535664735601      5.24242708903083      1.86804469129544
| 81>   H          -1.17710770666495      6.94193759854241      3.24220128035469
| 82>   C          -0.37543092363935      5.26383071402407     -0.83298098318875
| 83>   H          -3.48266821666680      5.97477219330621     -3.07242628284930
| 84>   O          -1.54837103365359      5.65370974331939     -1.32834609893894
| 85>   H          -0.96103201390531      6.08313164668887     -3.25659115774670
| 86>   O           0.68377366322888      5.68386425692411     -1.20576954612033
| 87>   C          -1.50780997470791      6.56076380118587     -2.42775181421741
| 88>   C          -2.93379832227595      6.88864667913376     -2.80405761566955
| 89>   H          -2.95069619099875      7.57197538157455     -3.66575279189082
| 90>   H          -3.45745054297526      7.36918775719544     -1.96504874267785
| 91>   H          -0.93561065213788      7.45625964034116     -2.13652953741457
| 92>   O           0.85402561815100      8.74040115128777      5.65302280353084
| 93>   O          -0.32194244063830      8.91696148590900      5.69712403169996
| 94> *
| 95> 
| 96>                          ****END OF INPUT****
================================================================================

                       ****************************
                       * Single Point Calculation *
                       ****************************

---------------------------------
CARTESIAN COORDINATES (ANGSTROEM)
---------------------------------
  C      3.348537   -1.882268    0.365290
  C      3.636428   -0.455247    0.381073
  C      3.237758    0.316317    1.470581
  C      2.667456   -2.466273    1.433953
  C      3.021711   -2.250478   -0.994749
  C      3.495987    0.050974   -0.968699
  C      2.685983    1.644767    1.251252
  C      2.528749   -0.289539    2.573971
  C      1.631118   -3.451050    1.170551
  C      2.247356   -1.662161    2.559453
  C      2.028645   -3.192861   -1.247785
  C      3.104768   -1.048322   -1.814223
  C      2.929954    1.317883   -1.176359
  C      1.610569    1.846144    2.188721
  C      2.532234    2.105869   -0.051877
  C      1.508594    0.648442    2.990267
  C      1.322626   -3.807958   -0.134441
  C      0.565694   -3.244010    2.138136
  C      0.947608   -2.127461    2.986219
  C      1.085672   -2.991967   -2.326963
  C      2.184370   -0.843616   -2.838954
  C      1.955497    1.540507   -2.217491
  C      0.486471    2.603122    1.836932
  C      1.396038    2.919588   -0.400763
  C      0.254230    0.211998    3.383398
  C     -0.063488   -3.981470   -0.533253
  C     -0.758184   -3.410604    1.756979
  C     -0.027020   -1.218152    3.402869
  C     -0.202794   -3.476106   -1.889728
  C      1.165675   -1.829306   -3.111430
  C      1.606019    0.481242   -3.045456
  C      0.958456    2.519501   -1.751378
  C      0.580620    3.395085    0.612918
  C     -0.852814    2.116600    2.183212
  C     -0.931760    0.933878    2.973390
  C     -1.080391   -3.791134    0.392054
  C     -1.772362   -2.468313    2.203274
  C     -1.399193   -1.390238    3.006120
  C     -1.370304   -2.805351   -2.255485
  C     -0.043122   -1.121784   -3.475846
  C      0.233671    0.309595   -3.441667
  C     -0.381682    2.354419   -2.139038
  C     -1.510531    3.134269    0.014809
  C     -1.885249    2.301112    1.152925
  C     -1.952598   -0.064322    2.752640
  C     -2.296601   -3.090603    0.009930
  C     -2.725974   -2.289814    1.131385
  C     -2.431218   -2.610965   -1.295280
  C     -1.284438   -1.602322   -3.072850
  C     -0.731051    1.206029   -2.992775
  C     -1.542519    2.554972   -1.245070
  C     -2.812963    1.286091    0.916112
  C     -2.877112    0.093740    1.731592
  C     -3.281752   -1.020623    0.908143
  C     -3.005774   -1.292416   -1.524655
  C     -2.301056   -0.678086   -2.630831
  C     -2.019968    0.693642   -2.598395
  C     -2.467366    1.479594   -1.487562
  C     -3.164666    0.907387   -0.430569
  C     -3.425444   -0.523416   -0.441933
  H      0.672878    4.842939    4.543329
  C     -0.262399    5.419014    4.492965
  H     -0.387949    5.972862    5.435106
  H      0.600072    7.092609    3.405775
  C     -0.233314    6.381912    3.322571
  O      0.002422    5.682365    2.100264
  H     -1.098350    4.711996    4.392849
  C     -1.046885    5.101625    1.519037
  C     -0.588912    4.267164    0.312658
  O     -2.185357    5.242427    1.868045
  H     -1.177108    6.941938    3.242201
  C     -0.375431    5.263831   -0.832981
  H     -3.482668    5.974772   -3.072426
  O     -1.548371    5.653710   -1.328346
  H     -0.961032    6.083132   -3.256591
  O      0.683774    5.683864   -1.205770
  C     -1.507810    6.560764   -2.427752
  C     -2.933798    6.888647   -2.804058
  H     -2.950696    7.571975   -3.665753
  H     -3.457451    7.369188   -1.965049
  H     -0.935611    7.456260   -2.136530
  O      0.854026    8.740401    5.653023
  O     -0.321942    8.916961    5.697124

----------------------------
CARTESIAN COORDINATES (A.U.)
----------------------------
  NO LB      ZA    FRAG     MASS         X           Y           Z
   0 C     6.0000    0    12.011    6.327817   -3.556970    0.690297
   1 C     6.0000    0    12.011    6.871852   -0.860292    0.720124
   2 C     6.0000    0    12.011    6.118476    0.597752    2.778996
   3 C     6.0000    0    12.011    5.040762   -4.660580    2.709778
   4 C     6.0000    0    12.011    5.710206   -4.252788   -1.879803
   5 C     6.0000    0    12.011    6.606459    0.096327   -1.830575
   6 C     6.0000    0    12.011    5.075772    3.108160    2.364523
   7 C     6.0000    0    12.011    4.778643   -0.547150    4.864101
   8 C     6.0000    0    12.011    3.082366   -6.521539    2.212021
   9 C     6.0000    0    12.011    4.246888   -3.141030    4.836666
  10 C     6.0000    0    12.011    3.833584   -6.033633   -2.357972
  11 C     6.0000    0    12.011    5.867162   -1.981042   -3.428384
  12 C     6.0000    0    12.011    5.536811    2.490437   -2.222997
  13 C     6.0000    0    12.011    3.043535    3.488706    4.136083
  14 C     6.0000    0    12.011    4.785229    3.979516   -0.098033
  15 C     6.0000    0    12.011    2.850829    1.225379    5.650786
  16 C     6.0000    0    12.011    2.499401   -7.195998   -0.254057
  17 C     6.0000    0    12.011    1.069006   -6.130290    4.040492
  18 C     6.0000    0    12.011    1.790720   -4.020318    5.643136
  19 C     6.0000    0    12.011    2.051622   -5.653998   -4.397324
  20 C     6.0000    0    12.011    4.127861   -1.594204   -5.364846
  21 C     6.0000    0    12.011    3.695354    2.911136   -4.190451
  22 C     6.0000    0    12.011    0.919296    4.919188    3.471298
  23 C     6.0000    0    12.011    2.638130    5.517222   -0.757333
  24 C     6.0000    0    12.011    0.480425    0.400619    6.393695
  25 C     6.0000    0    12.011   -0.119974   -7.523889   -1.007701
  26 C     6.0000    0    12.011   -1.432759   -6.445108    3.320210
  27 C     6.0000    0    12.011   -0.051061   -2.301975    6.430491
  28 C     6.0000    0    12.011   -0.383224   -6.568889   -3.571068
  29 C     6.0000    0    12.011    2.202807   -3.456887   -5.879750
  30 C     6.0000    0    12.011    3.034937    0.909416   -5.755077
  31 C     6.0000    0    12.011    1.811218    4.761167   -3.309626
  32 C     6.0000    0    12.011    1.097213    6.415780    1.158248
  33 C     6.0000    0    12.011   -1.611585    3.999794    4.125673
  34 C     6.0000    0    12.011   -1.760771    1.764774    5.618893
  35 C     6.0000    0    12.011   -2.041643   -7.164204    0.740875
  36 C     6.0000    0    12.011   -3.349279   -4.664436    4.163585
  37 C     6.0000    0    12.011   -2.644092   -2.627170    5.680744
  38 C     6.0000    0    12.011   -2.589500   -5.301344   -4.262249
  39 C     6.0000    0    12.011   -0.081488   -2.119865   -6.568397
  40 C     6.0000    0    12.011    0.441574    0.585049   -6.503808
  41 C     6.0000    0    12.011   -0.721274    4.449207   -4.042195
  42 C     6.0000    0    12.011   -2.854489    5.922909    0.027984
  43 C     6.0000    0    12.011   -3.562604    4.348472    2.178712
  44 C     6.0000    0    12.011   -3.689876   -0.121551    5.201737
  45 C     6.0000    0    12.011   -4.339948   -5.840393    0.018765
  46 C     6.0000    0    12.011   -5.151343   -4.327121    2.138008
  47 C     6.0000    0    12.011   -4.594336   -4.934009   -2.447725
  48 C     6.0000    0    12.011   -2.427236   -3.027949   -5.806846
  49 C     6.0000    0    12.011   -1.381486    2.279064   -5.655525
  50 C     6.0000    0    12.011   -2.914938    4.828198   -2.352841
  51 C     6.0000    0    12.011   -5.315730    2.430360    1.731201
  52 C     6.0000    0    12.011   -5.436954    0.177143    3.272234
  53 C     6.0000    0    12.011   -6.201613   -1.928697    1.716142
  54 C     6.0000    0    12.011   -5.680090   -2.442313   -2.881181
  55 C     6.0000    0    12.011   -4.348366   -1.281397   -4.971550
  56 C     6.0000    0    12.011   -3.817186    1.310794   -4.910255
  57 C     6.0000    0    12.011   -4.662646    2.796027   -2.811084
  58 C     6.0000    0    12.011   -5.980352    1.714713   -0.813658
  59 C     6.0000    0    12.011   -6.473152   -0.989114   -0.835132
  60 H     1.0000    0     1.008    1.271556    9.151829    8.585647
  61 C     6.0000    0    12.011   -0.495862   10.240452    8.490473
  62 H     1.0000    0     1.008   -0.733117   11.287073   10.270862
  63 H     1.0000    0     1.008    1.133972   13.403088    6.435982
  64 C     6.0000    0    12.011   -0.440899   12.060065    6.278749
  65 O     8.0000    0    15.999    0.004578   10.738114    3.968923
  66 H     1.0000    0     1.008   -2.075580    8.904382    8.301281
  67 C     6.0000    0    12.011   -1.978325    9.640675    2.870565
  68 C     6.0000    0    12.011   -1.112883    8.063771    0.590839
  69 O     8.0000    0    15.999   -4.129726    9.906751    3.530093
  70 H     1.0000    0     1.008   -2.224411   13.118361    6.126872
  71 C     6.0000    0    12.011   -0.709462    9.947198   -1.574106
  72 H     1.0000    0     1.008   -6.581289   11.290683   -5.806044
  73 O     8.0000    0    15.999   -2.925997   10.683963   -2.510210
  74 H     1.0000    0     1.008   -1.816087   11.495453   -6.154065
  75 O     8.0000    0    15.999    1.292145   10.740947   -2.278574
  76 C     6.0000    0    12.011   -2.849348   12.398047   -4.587786
  77 C     6.0000    0    12.011   -5.544075   13.017656   -5.298901
  78 H     1.0000    0     1.008   -5.576008   14.308960   -6.927269
  79 H     1.0000    0     1.008   -6.533635   13.925747   -3.713404
  80 H     1.0000    0     1.008   -1.768048   14.090289   -4.037456
  81 O     8.0000    0    15.999    1.613875   16.516964   10.682665
  82 O     8.0000    0    15.999   -0.608383   16.850615   10.766004

--------------------------------
INTERNAL COORDINATES (ANGSTROEM)
--------------------------------
 C      0   0   0     0.000000000000     0.00000000     0.00000000
 C      1   0   0     1.455856768850     0.00000000     0.00000000
 C      2   1   0     1.393296820287   119.64968196     0.00000000
 C      1   2   3     1.395340099377   119.89873520     0.49468833
 C      1   2   3     1.446408786660   107.72225693   142.98533268
 C      2   1   3     1.448401526525   108.25842081   216.61826914
 C      3   2   1     1.455108780185   119.74903448   220.61258014
 C      3   2   1     1.444723128476   120.35863376   359.29521836
 C      4   1   2     1.453672690204   119.52078979   138.08485976
 C      8   3   2     1.401243741505   120.09476175     0.53763484
 C      5   1   2     1.392225522532   120.29054470   217.45028752
 C      6   2   1     1.440977485893   107.84901968     0.81902458
 C      6   2   1     1.403058591453   119.51375650   141.78898021
 C      7   3   2     1.440803557376   108.21359383   141.41555075
 C      7   3   2     1.390826405237   119.06608171     1.77831485
 C     14   7   3     1.444771342690   107.32527756     0.46956831
 C      9   4   1     1.387643626906   120.20764504     0.04697061
 C      9   4   1     1.454033954131   107.77844687   217.51432381
 C     10   8   3     1.444983572796   119.53830026   222.51758049
 C     11   5   1     1.447129435280   120.42192914   138.50378584
 C     12   6   2     1.392519860464   119.94019050   141.80635342
 C     13   6   2     1.443289203918   121.22669325   223.89821760
 C     14   7   3     1.400131853623   120.75257552   214.08619778
 C     15   7   3     1.440416983393   120.09431019   143.48182423
 C     16  14   7     1.385085934716   118.85567069   216.41155070
 C     17   9   4     1.452745348770   120.06670861   221.65796876
 C     18   9   4     1.387690706454   119.94502965   142.98108835
 C     19  10   8     1.396545444492   120.41033475     0.40743736
 C     20  11   5     1.444198193708   108.00131546   217.36861701
 C     20  11   5     1.404837706552   119.61734142   359.20185402
 C     22  13   6     1.389137098832   118.82847388   358.28346371
 C     22  13   6     1.473018290638   109.34474918   144.22759749
 C     24  15   7     1.385118721890   118.75301183     9.55236682
 C     23  14   7     1.466389459258   119.64021738   135.86776334
 C     34  23  14     1.424585603520   117.19684918     5.28944921
 C     26  17   9     1.387988889538   119.97696411   359.94966179
 C     27  18   9     1.454527191437   120.20811715   222.03610857
 C     37  27  18     1.395013433863   119.38771339     0.61653040
 C     29  20  11     1.395268075436   120.39854528   142.53511810
 C     30  20  11     1.447264906272   119.84347210   222.72389026
 C     31  22  13     1.438675167286   119.67662344   140.29168905
 C     32  22  13     1.404813025369   118.70414209   216.42388888
 C     33  24  15     2.190586843891   108.74068915   223.98978011
 C     43  33  24     1.459407809906    95.74779324   121.60068314
 C     35  34  23     1.444730049609   121.87219495   217.75863002
 C     36  26  17     1.454623536220   120.23038486   138.52838463
 C     46  36  26     1.443358894838   108.16805960   217.07077637
 C     46  36  26     1.397049874525   119.42815062   359.96097254
 C     40  30  20     1.390750712655   120.23886272   358.82306650
 C     41  31  22     1.391325441487   119.71533060     0.02872468
 C     43  33  24     1.387047735757   108.64748955   359.85513936
 C     44  43  33     1.395350230927   116.97737290   215.46467739
 C     45  35  34     1.386452377798   120.32662618     1.41004949
 C     47  46  36     1.403415244729   119.73315073   142.41168092
 C     48  46  36     1.456467998124   119.73290033   221.83425879
 C     49  40  30     1.443296755150   119.74700794   139.97331140
 C     56  49  40     1.400607613821   119.53083716   359.27704510
 C     57  56  49     1.432422913377   119.51487705   221.62027999
 C     58  57  56     1.389561435335   121.37802433     0.67573490
 C     55  48  46     1.392756960114   119.75521285   359.54570384
 H     23  14   7     3.517969909943    96.22232635   234.62646768
 C     61  23  14     1.099609692509   104.66965358   188.88297169
 H     62  61  23     1.100063720971   108.76027055   166.83199134
 H     62  61  23     2.174110971510    95.09287220   263.80734092
 C     64  62  61     1.098428455521    40.43338468   125.74657651
 O     65  64  62     1.427925635956   104.86604789   240.18126487
 H     62  61  23     1.099414052705   108.29998286    49.27001035
 C     66  65  64     1.332714551169   117.18195354   202.35998073
 C     33  24  15     1.489457582138   121.04532111   178.54222800
 O     68  66  65     1.199061963070   124.71187882     8.30994970
 H     65  64  62     1.100379871366   109.08585472   123.34834268
 C     69  33  24     1.533430518154   114.95120517   323.34102960
 H     72  69  33     3.895571412812   115.91660389   144.59411121
 O     72  69  33     1.331608334709   110.21835815   158.62457777
 H     74  72  69     2.060946215220    99.09259309   207.82048491
 O     72  69  33     1.198880247004   125.66368494   335.79363092
 C     75  74  72     1.101849931166    40.98427418   231.46129305
 C     73  72  69     1.099293626989    67.23966088   135.99242135
 H     78  73  72     1.099882825700   108.51492835   143.05870202
 H     78  73  72     1.099575947767   108.16826941   260.69911096
 H     77  75  74     1.101878068209   107.06210859   117.70920918
 O     64  62  61     2.798184242368    95.03178795   259.15163938
 O     82  64  62     1.189966111022    91.57293900   287.45922746

---------------------------
INTERNAL COORDINATES (A.U.)
---------------------------
 C      0   0   0     0.000000000000     0.00000000     0.00000000
 C      1   0   0     2.751170583343     0.00000000     0.00000000
 C      2   1   0     2.632949413607   119.64968196     0.00000000
 C      1   2   3     2.636810651501   119.89873520     0.49468833
 C      1   2   3     2.733316484485   107.72225693   142.98533268
 C      2   1   3     2.737082217085   108.25842081   216.61826914
 C      3   2   1     2.749757089613   119.74903448   220.61258014
 C      3   2   1     2.730131052162   120.35863376   359.29521836
 C      4   1   2     2.747043272845   119.52078979   138.08485976
 C      8   3   2     2.647966918315   120.09476175     0.53763484
 C      5   1   2     2.630924954240   120.29054470   217.45028752
 C      6   2   1     2.723052813485   107.84901968     0.81902458
 C      6   2   1     2.651396487691   119.51375650   141.78898021
 C      7   3   2     2.722724136221   108.21359383   141.41555075
 C      7   3   2     2.628281005723   119.06608171     1.77831485
 C     14   7   3     2.730222163821   107.32527756     0.46956831
 C      9   4   1     2.622266426333   120.20764504     0.04697061
 C      9   4   1     2.747725962730   107.77844687   217.51432381
 C     10   8   3     2.730623220599   119.53830026   222.51758049
 C     11   5   1     2.734678313016   120.42192914   138.50378584
 C     12   6   2     2.631481172323   119.94019050   141.80635342
 C     13   6   2     2.727421327449   121.22669325   223.89821760
 C     14   7   3     2.645865754727   120.75257552   214.08619778
 C     15   7   3     2.721993617261   120.09431019   143.48182423
 C     16  14   7     2.617433088559   118.85567069   216.41155070
 C     17   9   4     2.745290851503   120.06670861   221.65796876
 C     18   9   4     2.622355393785   119.94502965   142.98108835
 C     19  10   8     2.639088423666   120.41033475     0.40743736
 C     20  11   5     2.729139069211   108.00131546   217.36861701
 C     20  11   5     2.654758527990   119.61734142   359.20185402
 C     22  13   6     2.625088679262   118.82847388   358.28346371
 C     22  13   6     2.783601159562   109.34474918   144.22759749
 C     24  15   7     2.617495047338   118.75301183     9.55236682
 C     23  14   7     2.771074483667   119.64021738   135.86776334
 C     34  23  14     2.692076644981   117.19684918     5.28944921
 C     26  17   9     2.622918878153   119.97696411   359.94966179
 C     27  18   9     2.748658046158   120.20811715   222.03610857
 C     37  27  18     2.636193343142   119.38771339     0.61653040
 C     29  20  11     2.636674545977   120.39854528   142.53511810
 C     30  20  11     2.734934316089   119.84347210   222.72389026
 C     31  22  13     2.718702061844   119.67662344   140.29168905
 C     32  22  13     2.654711887312   118.70414209   216.42388888
 C     33  24  15     4.139609207525   108.74068915   223.98978011
 C     43  33  24     2.757881078427    95.74779324   121.60068314
 C     35  34  23     2.730144131207   121.87219495   217.75863002
 C     36  26  17     2.748840111412   120.23038486   138.52838463
 C     46  36  26     2.727553024204   108.16805960   217.07077637
 C     46  36  26     2.640041658281   119.42815062   359.96097254
 C     40  30  20     2.628137967473   120.23886272   358.82306650
 C     41  31  22     2.629224047568   119.71533060     0.02872468
 C     43  33  24     2.621140355257   108.64748955   359.85513936
 C     44  43  33     2.636829797357   116.97737290   215.46467739
 C     45  35  34     2.620015291762   120.32662618     1.41004949
 C     47  46  36     2.652070464708   119.73315073   142.41168092
 C     48  46  36     2.752325639275   119.73290033   221.83425879
 C     49  40  30     2.727435597210   119.74700794   139.97331140
 C     56  49  40     2.646764811207   119.53083716   359.27704510
 C     57  56  49     2.706887014236   119.51487705   221.62027999
 C     58  57  56     2.625890559042   121.37802433     0.67573490
 C     55  48  46     2.631929225727   119.75521285   359.54570384
 H     23  14   7     6.647999677168    96.22232635   234.62646768
 C     61  23  14     2.077961173048   104.66965358   188.88297169
 H     62  61  23     2.078819162498   108.76027055   166.83199134
 H     62  61  23     4.108474320908    95.09287220   263.80734092
 C     64  62  61     2.075728958640    40.43338468   125.74657651
 O     65  64  62     2.698388391562   104.86604789   240.18126487
 H     62  61  23     2.077591467397   108.29998286    49.27001035
 C     66  65  64     2.518465516400   117.18195354   202.35998073
 C     33  24  15     2.814666918333   121.04532111   178.54222800
 O     68  66  65     2.265898727803   124.71187882     8.30994970
 H     65  64  62     2.079416600162   109.08585472   123.34834268
 C     69  33  24     2.897763724708   114.95120517   323.34102960
 H     72  69  33     7.361563105347   115.91660389   144.59411121
 O     72  69  33     2.516375070247   110.21835815   158.62457777
 H     74  72  69     3.894623923507    99.09259309   207.82048491
 O     72  69  33     2.265555334205   125.66368494   335.79363092
 C     75  74  72     2.082194610584    40.98427418   231.46129305
 C     73  72  69     2.077363895775    67.23966088   135.99242135
 H     78  73  72     2.078477319976   108.51492835   143.05870202
 H     78  73  72     2.077897404726   108.16826941   260.69911096
 H     77  75  74     2.082247781889   107.06210859   117.70920918
 O     64  62  61     5.287801890330    95.03178795   259.15163938
 O     82  64  62     2.248710058478    91.57293900   287.45922746

---------------------
BASIS SET INFORMATION
---------------------
There are 3 groups of distinct atoms

 Group   1 Type C   : 11s6p2d1f contracted to 5s3p2d1f pattern {62111/411/11/1}
 Group   2 Type H   : 5s2p1d contracted to 3s2p1d pattern {311/11/1}
 Group   3 Type O   : 11s6p2d1f contracted to 5s3p2d1f pattern {62111/411/11/1}

Atom   0C    basis set group =>   1
Atom   1C    basis set group =>   1
Atom   2C    basis set group =>   1
Atom   3C    basis set group =>   1
Atom   4C    basis set group =>   1
Atom   5C    basis set group =>   1
Atom   6C    basis set group =>   1
Atom   7C    basis set group =>   1
Atom   8C    basis set group =>   1
Atom   9C    basis set group =>   1
Atom  10C    basis set group =>   1
Atom  11C    basis set group =>   1
Atom  12C    basis set group =>   1
Atom  13C    basis set group =>   1
Atom  14C    basis set group =>   1
Atom  15C    basis set group =>   1
Atom  16C    basis set group =>   1
Atom  17C    basis set group =>   1
Atom  18C    basis set group =>   1
Atom  19C    basis set group =>   1
Atom  20C    basis set group =>   1
Atom  21C    basis set group =>   1
Atom  22C    basis set group =>   1
Atom  23C    basis set group =>   1
Atom  24C    basis set group =>   1
Atom  25C    basis set group =>   1
Atom  26C    basis set group =>   1
Atom  27C    basis set group =>   1
Atom  28C    basis set group =>   1
Atom  29C    basis set group =>   1
Atom  30C    basis set group =>   1
Atom  31C    basis set group =>   1
Atom  32C    basis set group =>   1
Atom  33C    basis set group =>   1
Atom  34C    basis set group =>   1
Atom  35C    basis set group =>   1
Atom  36C    basis set group =>   1
Atom  37C    basis set group =>   1
Atom  38C    basis set group =>   1
Atom  39C    basis set group =>   1
Atom  40C    basis set group =>   1
Atom  41C    basis set group =>   1
Atom  42C    basis set group =>   1
Atom  43C    basis set group =>   1
Atom  44C    basis set group =>   1
Atom  45C    basis set group =>   1
Atom  46C    basis set group =>   1
Atom  47C    basis set group =>   1
Atom  48C    basis set group =>   1
Atom  49C    basis set group =>   1
Atom  50C    basis set group =>   1
Atom  51C    basis set group =>   1
Atom  52C    basis set group =>   1
Atom  53C    basis set group =>   1
Atom  54C    basis set group =>   1
Atom  55C    basis set group =>   1
Atom  56C    basis set group =>   1
Atom  57C    basis set group =>   1
Atom  58C    basis set group =>   1
Atom  59C    basis set group =>   1
Atom  60H    basis set group =>   2
Atom  61C    basis set group =>   1
Atom  62H    basis set group =>   2
Atom  63H    basis set group =>   2
Atom  64C    basis set group =>   1
Atom  65O    basis set group =>   3
Atom  66H    basis set group =>   2
Atom  67C    basis set group =>   1
Atom  68C    basis set group =>   1
Atom  69O    basis set group =>   3
Atom  70H    basis set group =>   2
Atom  71C    basis set group =>   1
Atom  72H    basis set group =>   2
Atom  73O    basis set group =>   3
Atom  74H    basis set group =>   2
Atom  75O    basis set group =>   3
Atom  76C    basis set group =>   1
Atom  77C    basis set group =>   1
Atom  78H    basis set group =>   2
Atom  79H    basis set group =>   2
Atom  80H    basis set group =>   2
Atom  81O    basis set group =>   3
Atom  82O    basis set group =>   3
---------------------------------
AUXILIARY/J BASIS SET INFORMATION
---------------------------------
There are 3 groups of distinct atoms

 Group   1 Type C   : 12s5p4d2f1g contracted to 6s4p3d1f1g pattern {711111/2111/211/2/1}
 Group   2 Type H   : 5s2p1d contracted to 3s1p1d pattern {311/2/1}
 Group   3 Type O   : 12s5p4d2f1g contracted to 6s4p3d1f1g pattern {711111/2111/211/2/1}

Atom   0C    basis set group =>   1
Atom   1C    basis set group =>   1
Atom   2C    basis set group =>   1
Atom   3C    basis set group =>   1
Atom   4C    basis set group =>   1
Atom   5C    basis set group =>   1
Atom   6C    basis set group =>   1
Atom   7C    basis set group =>   1
Atom   8C    basis set group =>   1
Atom   9C    basis set group =>   1
Atom  10C    basis set group =>   1
Atom  11C    basis set group =>   1
Atom  12C    basis set group =>   1
Atom  13C    basis set group =>   1
Atom  14C    basis set group =>   1
Atom  15C    basis set group =>   1
Atom  16C    basis set group =>   1
Atom  17C    basis set group =>   1
Atom  18C    basis set group =>   1
Atom  19C    basis set group =>   1
Atom  20C    basis set group =>   1
Atom  21C    basis set group =>   1
Atom  22C    basis set group =>   1
Atom  23C    basis set group =>   1
Atom  24C    basis set group =>   1
Atom  25C    basis set group =>   1
Atom  26C    basis set group =>   1
Atom  27C    basis set group =>   1
Atom  28C    basis set group =>   1
Atom  29C    basis set group =>   1
Atom  30C    basis set group =>   1
Atom  31C    basis set group =>   1
Atom  32C    basis set group =>   1
Atom  33C    basis set group =>   1
Atom  34C    basis set group =>   1
Atom  35C    basis set group =>   1
Atom  36C    basis set group =>   1
Atom  37C    basis set group =>   1
Atom  38C    basis set group =>   1
Atom  39C    basis set group =>   1
Atom  40C    basis set group =>   1
Atom  41C    basis set group =>   1
Atom  42C    basis set group =>   1
Atom  43C    basis set group =>   1
Atom  44C    basis set group =>   1
Atom  45C    basis set group =>   1
Atom  46C    basis set group =>   1
Atom  47C    basis set group =>   1
Atom  48C    basis set group =>   1
Atom  49C    basis set group =>   1
Atom  50C    basis set group =>   1
Atom  51C    basis set group =>   1
Atom  52C    basis set group =>   1
Atom  53C    basis set group =>   1
Atom  54C    basis set group =>   1
Atom  55C    basis set group =>   1
Atom  56C    basis set group =>   1
Atom  57C    basis set group =>   1
Atom  58C    basis set group =>   1
Atom  59C    basis set group =>   1
Atom  60H    basis set group =>   2
Atom  61C    basis set group =>   1
Atom  62H    basis set group =>   2
Atom  63H    basis set group =>   2
Atom  64C    basis set group =>   1
Atom  65O    basis set group =>   3
Atom  66H    basis set group =>   2
Atom  67C    basis set group =>   1
Atom  68C    basis set group =>   1
Atom  69O    basis set group =>   3
Atom  70H    basis set group =>   2
Atom  71C    basis set group =>   1
Atom  72H    basis set group =>   2
Atom  73O    basis set group =>   3
Atom  74H    basis set group =>   2
Atom  75O    basis set group =>   3
Atom  76C    basis set group =>   1
Atom  77C    basis set group =>   1
Atom  78H    basis set group =>   2
Atom  79H    basis set group =>   2
Atom  80H    basis set group =>   2
Atom  81O    basis set group =>   3
Atom  82O    basis set group =>   3


           ************************************************************
           *        Program running with 28 parallel MPI-processes    *
           *              working on a common directory               *
           ************************************************************
------------------------------------------------------------------------------
                             ORCA STARTUP CALCULATIONS
                           -- RI-GTO INTEGRALS CHOSEN --
------------------------------------------------------------------------------
------------------------------------------------------------------------------
                   ___                                                        
                  /   \      - P O W E R E D   B Y -                         
                 /     \                                                     
                 |  |  |   _    _      __       _____    __    __             
                 |  |  |  | |  | |    /  \     |  _  \  |  |  /  |          
                  \  \/   | |  | |   /    \    | | | |  |  | /  /          
                 / \  \   | |__| |  /  /\  \   | |_| |  |  |/  /          
                |  |  |   |  __  | /  /__\  \  |    /   |      \           
                |  |  |   | |  | | |   __   |  |    \   |  |\   \          
                \     /   | |  | | |  |  |  |  | |\  \  |  | \   \       
                 \___/    |_|  |_| |__|  |__|  |_| \__\ |__|  \__/        
                                                                              
                      - O R C A' S   B I G   F R I E N D -                    
                                      &                                       
                       - I N T E G R A L  F E E D E R -                       
                                                                              
 v1 FN, 2020, v2 2021, v3 2022-2024                                           
------------------------------------------------------------------------------


----------------------
SHARK INTEGRAL PACKAGE
----------------------

Number of atoms                             ...     83
Number of basis functions                   ...   2403
Number of shells                            ...    863
Maximum angular momentum                    ...      3
Integral batch strategy                     ... SHARK/LIBINT Hybrid
RI-J (if used) integral strategy            ... SPLIT-RIJ (Revised 2003 algorithm where possible)
Printlevel                                  ...      1
Contraction scheme used                     ... SEGMENTED contraction
Prescreening option                         ... SCHWARTZ
   Thresh                                   ... 2.500e-11
   Tcut                                     ... 2.500e-12
   Tpresel                                  ... 2.500e-12 
Coulomb Range Separation                    ... NOT USED
Exchange Range Separation                   ... Long Range
   Mu parameter                             ... 2.500e-01
   Scaling (regular/separated)              ... 1.957e-01 8.043e-01
Multipole approximations                    ... NOT USED
Finite Nucleus Model                        ... NOT USED
CABS basis                                  ... NOT available
Auxiliary Coulomb fitting basis             ... AVAILABLE
   # of basis functions in Aux-J            ...   3687
   # of shells in Aux-J                     ...   1145
   Maximum angular momentum in Aux-J        ...      4
Auxiliary J/K fitting basis                 ... NOT available
Auxiliary Correlation fitting basis         ... NOT available
Auxiliary 'external' fitting basis          ... NOT available

Checking pre-screening integrals            ... done (  0.0 sec) Dimension = 863
Check shell pair data                       ... done (  0.0 sec)
Shell pair information
Shell pair cut-off parameter TPreSel        ...   2.5e-12
Total number of shell pairs                 ...    372816
Shell pairs after pre-screening             ...    213791
Total number of primitive shell pairs       ...   1188206
Primitive shell pairs kept                  ...    409087
          la=0 lb=0:  41677 shell pairs
          la=1 lb=0:  59257 shell pairs
          la=1 lb=1:  20630 shell pairs
          la=2 lb=0:  31426 shell pairs
          la=2 lb=1:  23646 shell pairs
          la=2 lb=2:   6335 shell pairs
          la=3 lb=0:  13635 shell pairs
          la=3 lb=1:  10647 shell pairs
          la=3 lb=2:   5442 shell pairs
          la=3 lb=3:   1096 shell pairs

Calculating one electron integrals          ... done (  0.4 sec)
Calculating RI/J V-Matrix + Cholesky decomp.... done (  0.6 sec)
Calculating Nuclear repulsion               ... done (  0.0 sec) ENN=  11764.944396003266 Eh

Diagonalization of the overlap matrix:
Smallest eigenvalue                        ... 1.177e-06
Time for diagonalization                   ...    0.467 sec
Threshold for overlap eigenvalues          ... 1.000e-07
Number of eigenvalues below threshold      ... 0
Time for construction of square roots      ...    0.469 sec
Total time needed                          ...    1.042 sec

-------------------
DFT GRID GENERATION
-------------------

General Integration Accuracy     IntAcc      ... 4.388
Radial Grid Type                 RadialGrid  ... OptM3 with GC (2021)
Angular Grid (max. ang.)         AngularGrid ... 4 (Lebedev-302)
Angular grid pruning method      GridPruning ... 4 (adaptive)
Weight generation scheme         WeightScheme... mBecke (2022)
Basis function cutoff            BFCut       ... 1.0000e-11
Integration weight cutoff        WCut        ... 1.0000e-14
Partially contracted basis set               ... off
Rotationally invariant grid construction     ... off
Angular grids for H and He will be reduced by one unit

Total number of grid points                  ...   457662
Total number of batches                      ...     7189
Average number of points per batch           ...       63
Average number of grid points per atom       ...     5514

--------------------
COSX GRID GENERATION
--------------------

GRIDX 1
-------
General Integration Accuracy     IntAcc      ... 3.816
Radial Grid Type                 RadialGrid  ... OptM3 with GC (2021)
Angular Grid (max. ang.)         AngularGrid ... 1 (Lebedev-50)
Angular grid pruning method      GridPruning ... 4 (adaptive)
Weight generation scheme         WeightScheme... mBecke (2022)
Basis function cutoff            BFCut       ... 1.0000e-11
Integration weight cutoff        WCut        ... 1.0000e-14
Partially contracted basis set               ... on
Rotationally invariant grid construction     ... off
Angular grids for H and He will be reduced by one unit

Total number of grid points                  ...    57444
Total number of batches                      ...      484
Average number of points per batch           ...      118
Average number of grid points per atom       ...      692
UseSFitting                                  ... on

GRIDX 2
-------
General Integration Accuracy     IntAcc      ... 4.020
Radial Grid Type                 RadialGrid  ... OptM3 with GC (2021)
Angular Grid (max. ang.)         AngularGrid ... 2 (Lebedev-110)
Angular grid pruning method      GridPruning ... 4 (adaptive)
Weight generation scheme         WeightScheme... mBecke (2022)
Basis function cutoff            BFCut       ... 1.0000e-11
Integration weight cutoff        WCut        ... 1.0000e-14
Partially contracted basis set               ... on
Rotationally invariant grid construction     ... off
Angular grids for H and He will be reduced by one unit

Total number of grid points                  ...   129574
Total number of batches                      ...     1063
Average number of points per batch           ...      121
Average number of grid points per atom       ...     1561
UseSFitting                                  ... on

GRIDX 3
-------
General Integration Accuracy     IntAcc      ... 4.338
Radial Grid Type                 RadialGrid  ... OptM3 with GC (2021)
Angular Grid (max. ang.)         AngularGrid ... 3 (Lebedev-194)
Angular grid pruning method      GridPruning ... 4 (adaptive)
Weight generation scheme         WeightScheme... mBecke (2022)
Basis function cutoff            BFCut       ... 1.0000e-11
Integration weight cutoff        WCut        ... 1.0000e-14
Partially contracted basis set               ... on
Rotationally invariant grid construction     ... off
Angular grids for H and He will be reduced by one unit

Total number of grid points                  ...   283712
Total number of batches                      ...     2252
Average number of points per batch           ...      125
Average number of grid points per atom       ...     3418
UseSFitting                                  ... on
Initializing property integral containers    ... done (  0.0 sec)

SHARK setup successfully completed in  14.5 seconds

Maximum memory used throughout the entire STARTUP-calculation: 447.5 MB


           ************************************************************
           *        Program running with 28 parallel MPI-processes    *
           *              working on a common directory               *
           ************************************************************
-------------------------------------------------------------------------------
                                 ORCA GUESS
                   Start orbitals & Density for SCF / CASSCF
-------------------------------------------------------------------------------

------------
SCF SETTINGS
------------
Hamiltonian:
 Density Functional     Method          .... DFT(GTOs)
 Exchange Functional    Exchange        .... WB97X-D3
 Correlation Functional Correlation     .... WB97X-D3
 Gradients option       PostSCFGGA      .... off
 Hybrid DFT is turned on
   Fraction HF Exchange ScalHFX         ....  0.195728
   Scaling of DF-GGA-X  ScalDFX         ....  0.000000
   Scaling of DF-GGA-C  ScalDFC         ....  1.000000
   Scaling of DF-LDA-C  ScalLDAC        ....  1.000000
   Perturbative correction              ....  0.000000
 Long-range corrected/Screened/Range-Separated Hybrid DFT is turned on
   Amount of maximum screened exact exchange              ....  0.804272
   Range separation parameter mu (erf(mu*r12)/r12)        ....  0.250000
 RI-approximation to the Coulomb term is turned on
   Number of AuxJ basis functions       .... 3687
   RIJ-COSX (HFX calculated with COS-X)).... on


General Settings:
 Integral files         IntName         .... c60_o2_SP_20
 Hartree-Fock type      HFTyp           .... UHF
 Total Charge           Charge          ....   -1
 Multiplicity           Mult            ....    2
 Number of Electrons    NEL             ....  461
 Basis Dimension        Dim             .... 2403
 Nuclear Repulsion      ENuc            ....  11764.9443960033 Eh

Convergence Acceleration:
 AO-DIIS                CNVDIIS         .... on
   Start iteration      DIISMaxIt       ....    12
   Startup error        DIISStart       ....  0.200000
   # of expansion vecs  DIISMaxEq       ....     5
   Bias factor          DIISBfac        ....   1.050
   Max. coefficient     DIISMaxC        ....  10.000
 MO-DIIS                CNVKDIIS        .... off
 Trust-Rad. Augm. Hess. CNVTRAH         .... auto
   Auto Start mean grad. ratio tolernc. ....  1.125000
   Auto Start start iteration           ....    50
   Auto Start num. interpolation iter.  ....    10
   Max. Number of Micro iterations      ....    24
   Max. Number of Macro iterations      .... Maxiter - #DIIS iter
   Number of Davidson start vectors     ....     2
   Converg. threshold    (grad. norm)   ....   1.000e-05
   Grad. Scal. Fac. for Micro threshold ....   0.100
   Minimum threshold for Micro iter.    ....   1.000e-02
   NR start threshold (gradient norm)   ....   1.000e-04
   Initial trust radius                 ....   0.400
   Minimum AH scaling param. (alpha)    ....   1.000
   Maximum AH scaling param. (alpha)    .... 1000.000
   Quad. conv. algorithm                .... NR
   White noise on init. David. guess    .... on
   Maximum white noise                  ....   0.010
   Pseudo random numbers                .... off
   Inactive MOs                         .... canonical
   Orbital update algorithm             .... Taylor
   Preconditioner                       .... Diag
   Full preconditioner red. dimension   ....   250
 SOSCF                  CNVSOSCF        .... on
   Start iteration      SOSCFMaxIt      ....   150
   Startup grad/error   SOSCFStart      ....  0.003300
   Hessian update       SOSCFHessUp     .... L-BFGS
 Level Shifting         CNVShift        .... on
   Level shift para.    LevelShift      ....    0.2500
   Turn off err/grad.   ShiftErr        ....    0.0010
 Zerner damping         CNVZerner       .... off
 Static damping         CNVDamp         .... on
   Fraction old density DampFac         ....    0.7000
   Max. Damping (<1)    DampMax         ....    0.9800
   Min. Damping (>=0)   DampMin         ....    0.0000
   Turn off err/grad.   DampErr         ....    0.1000

SCF Procedure:
 Maximum # iterations   MaxIter         ....   125
 SCF integral mode      SCFMode         .... Direct
   Integral package                     .... SHARK and LIBINT hybrid scheme
 Reset frequency        DirectResetFreq ....    20
 Integral Threshold     Thresh          ....  2.500e-11 Eh
 Primitive CutOff       TCut            ....  2.500e-12 Eh

Convergence Tolerance:
 Convergence Check Mode ConvCheckMode   .... Total+1el-Energy
 Convergence forced     ConvForced      .... 0
 Energy Change          TolE            ....  1.000e-08 Eh
 1-El. energy change                    ....  1.000e-05 Eh
 Orbital Gradient       TolG            ....  1.000e-05
 Orbital Rotation angle TolX            ....  1.000e-05
 DIIS Error             TolErr          ....  5.000e-07

------------------------------
INITIAL GUESS: MODEL POTENTIAL
------------------------------
Loading Hartree-Fock densities                     ... done
Calculating cut-offs                               ... done
Initializing the effective Hamiltonian             ... done
Setting up the integral package (SHARK)            ... done
Starting the Coulomb interaction                   ... done (   1.9 sec)
Making the grid                                    ... done (   0.8 sec)
Mapping shells                                     ... done
Starting the XC term evaluation                    ... done (   1.1 sec)
  promolecular density results
     # of electrons  =    460.013056290
     EX              =   -395.297398622
     EC              =    -16.073255320
     EX+EC           =   -411.370653942
Transforming the Hamiltonian                       ... done (   0.3 sec)
Diagonalizing the Hamiltonian                      ... done (   0.6 sec)
Back transforming the eigenvectors                 ... done (   0.5 sec)
Now organizing SCF variables                       ... done
                      ------------------
                      INITIAL GUESS DONE (   6.3 sec)
                      ------------------
             **** ENERGY FILE WAS UPDATED (c60_o2_SP_20.en.tmp) ****
Finished Guess after   9.0 sec
Maximum memory used throughout the entire GUESS-calculation: 408.3 MB


           ************************************************************
           *        Program running with 28 parallel MPI-processes    *
           *              working on a common directory               *
           ************************************************************

-------------------------------------------------------------------------------------------
                                      ORCA LEAN-SCF
                              memory conserving SCF solver
-------------------------------------------------------------------------------------------

----------------------------------------D-I-I-S--------------------------------------------
Iteration    Energy (Eh)           Delta-E    RMSDP     MaxDP     DIISErr   Damp  Time(sec)
-------------------------------------------------------------------------------------------
               ***  Starting incremental Fock matrix formation  ***
    1    -3007.5900276051943365     0.00e+00  1.85e-03  2.85e-01  1.30e-01  0.700  97.6
Warning: op=0 Small HOMO/LUMO gap (  -0.808) - skipping pre-diagonalization
         LevelShift set to 0.908 Eh
         Will do a full diagonalization
    2    -3008.5568496203159157    -9.67e-01  4.57e-03  1.14e+00  8.62e-02  0.700  51.4
                               ***Turning on AO-DIIS***
    3    -3007.6394585032994655     9.17e-01  5.57e-03  1.65e+00  1.59e-01  0.700  46.7
    4    -3007.5941263258082472     4.53e-02  5.57e-03  1.75e+00  1.43e-01  0.700  45.9
    5    -3007.6635354416030168    -6.94e-02  4.15e-03  1.43e+00  1.28e-01  0.700  45.9
    6    -3007.8794603103269765    -2.16e-01  2.91e-03  1.11e+00  1.15e-01  0.700  46.0
    7    -3008.2178326185530750    -3.38e-01  3.27e-03  9.89e-01  9.85e-02  0.700  45.7
    8    -3008.7220548988407245    -5.04e-01  1.18e-02  4.10e+00  4.62e-02  0.000  45.8
    9    -3009.8562636761162139    -1.13e+00  2.70e-03  1.09e+00  1.13e-01  0.000  48.8
   10    -3009.9827188677190861    -1.26e-01  3.89e-04  1.79e-01  9.36e-02  0.700  46.0
   11    -3010.0022415931962314    -1.95e-02  1.56e-03  7.27e-01  8.99e-02  0.000  41.0
   12    -3010.0794745000075636    -7.72e-02  4.78e-04  1.88e-01  7.62e-02  0.000  45.7
   13    -3010.1274580304907431    -4.80e-02  5.84e-04  1.39e-01  5.69e-02  0.000  43.5
   14    -3010.2051805892133416    -7.77e-02  1.76e-04  3.64e-02  8.20e-03  0.000  45.0
   15    -3010.2186484457251936    -1.35e-02  1.32e-04  2.10e-02  5.97e-03  0.000  42.3
   16    -3010.2296683471522556    -1.10e-02  1.06e-04  1.41e-02  5.37e-03  0.000  41.4
   17    -3010.2400961764142266    -1.04e-02  7.97e-05  9.03e-03  4.28e-03  0.000  41.2
   18    -3010.2496960982152814    -9.60e-03  6.39e-05  5.62e-03  4.02e-03  0.000  40.6
   19    -3010.2586993166078173    -9.00e-03  4.92e-05  5.36e-03  4.50e-03  0.000  40.3
   20    -3010.2669269828784309    -8.23e-03  4.69e-05  5.61e-03  5.08e-03  0.000  39.6
               *** Restarting incremental Fock matrix formation ***
                             ****Resetting DIIS****
Warning: op=0 Small HOMO/LUMO gap (   0.090) - skipping pre-diagonalization
         Will do a full diagonalization
   21    -3010.2751815852334403    -8.25e-03  4.43e-03  8.44e-01  5.72e-03  0.000  56.2
   22    -3010.3007358560844295    -2.56e-02  1.68e-04  3.21e-02  1.05e-02  0.000  47.1
   23    -3010.3079624307501945    -7.23e-03  1.73e-04  3.25e-02  8.06e-03  0.000  40.5
   24    -3010.3174880877031683    -9.53e-03  4.77e-05  9.04e-03  8.65e-03  0.000  41.4
   25    -3010.3235023584456940    -6.01e-03  5.88e-05  1.27e-02  8.19e-03  0.000  39.0
   26    -3010.3305724316796841    -7.07e-03  6.69e-05  1.56e-02  7.05e-03  0.000  39.2
   27    -3010.3367918525400455    -6.22e-03  4.05e-05  1.12e-02  4.79e-03  0.000  39.7
                              *** Initializing SOSCF ***
---------------------------------------S-O-S-C-F--------------------------------------
Iteration    Energy (Eh)           Delta-E    RMSDP     MaxDP     MaxGrad    Time(sec)
--------------------------------------------------------------------------------------
   28    -3010.3395133887897828    -2.72e-03  2.77e-05  5.86e-03  2.65e-03    42.1
               *** Restarting incremental Fock matrix formation ***
   29    -3010.3397582353954931    -2.45e-04  4.80e-03  8.94e-01  3.25e-03    96.2
   30    -3010.3403213995861734    -5.63e-04  1.40e-03  1.44e-01  2.71e-03    84.9
   31    -3010.3405484463855828    -2.27e-04  2.25e-04  3.48e-02  3.07e-03    81.9
               *** Scaled step length from 0.455753 to 0.200000 ***
   32    -3010.3410121404249367    -4.64e-04  4.14e-04  6.68e-02  3.24e-03    72.1
               *** Scaled step length from 0.528772 to 0.200000 ***
   33    -3010.3421990404276585    -1.19e-03  5.91e-04  8.19e-02  3.64e-03    78.6
               *** Scaled step length from 0.298517 to 0.200000 ***
   34    -3010.3430576210084837    -8.59e-04  7.25e-04  7.62e-02  6.10e-03    80.1
               *** Scaled step length from 0.221258 to 0.200000 ***
   35    -3010.3438515306788759    -7.94e-04  1.67e-03  2.75e-01  7.73e-03    82.0
               *** Scaled step length from 0.249552 to 0.200000 ***
   36    -3010.3451090591261163    -1.26e-03  2.28e-03  4.28e-01  7.54e-03    83.5
   37    -3010.3468970227713726    -1.79e-03  2.79e-03  5.33e-01  4.69e-03    82.3
   38    -3010.3480251060045703    -1.13e-03  1.29e-03  1.91e-01  1.33e-03    82.9
   39    -3010.3482411400000274    -2.16e-04  5.12e-04  5.12e-02  1.67e-03    81.3
   40    -3010.3483739664206951    -1.33e-04  4.29e-04  4.37e-02  7.60e-04    78.7
   41    -3010.3484536506330187    -7.97e-05  1.55e-04  1.67e-02  6.20e-04    76.6
   42    -3010.3484873081961268    -3.37e-05  3.25e-05  3.57e-03  4.74e-04    71.4
   43    -3010.3485055410783389    -1.82e-05  2.90e-05  3.04e-03  3.35e-04    66.5
   44    -3010.3485149031857873    -9.36e-06  2.20e-05  2.39e-03  2.07e-04    65.5
   45    -3010.3485189332150185    -4.03e-06  4.17e-06  8.64e-04  1.44e-04    62.4
   46    -3010.3485205254619359    -1.59e-06  1.66e-05  1.74e-03  1.29e-04    54.1
   47    -3010.3485215227010485    -9.97e-07  9.23e-06  9.33e-04  7.98e-05    59.4
   48    -3010.3485220990114613    -5.76e-07  4.77e-06  1.00e-03  7.12e-05    56.2
               *** Restarting incremental Fock matrix formation ***
   49    -3010.3485228342069604    -7.35e-07  1.74e-05  2.68e-03  5.47e-05    96.1
   50    -3010.3485230958285683    -2.62e-07  6.37e-06  8.58e-04  3.88e-05    60.2
   51    -3010.3485232435323269    -1.48e-07  7.05e-06  1.27e-03  2.90e-05    54.2
   52    -3010.3485233378269186    -9.43e-08  7.53e-06  1.43e-03  2.57e-05    53.3
   53    -3010.3485234268791828    -8.91e-08  3.50e-06  6.43e-04  1.91e-05    54.2
   54    -3010.3485235241332703    -9.73e-08  5.53e-06  1.06e-03  1.39e-05    50.6
   55    -3010.3485236110682308    -8.69e-08  3.89e-06  6.38e-04  7.37e-06    52.0
   56    -3010.3485236295036884    -1.84e-08  3.15e-06  4.80e-04  8.14e-06    50.8
   57    -3010.3485238112498337    -1.82e-07  3.13e-06  5.26e-04  2.85e-06    46.8
   58    -3010.3485238358207425    -2.46e-08  2.42e-06  3.63e-04  1.90e-06    46.3
                  *** Gradient check signals convergence ***

               *****************************************************
               *                     SUCCESS                       *
               *           SCF CONVERGED AFTER  58 CYCLES          *
               *****************************************************

Recomputing exchange energy using gridx3       ... done (  165.304 sec)
Old exchange energy                            :   -127.861665925 Eh
New exchange energy                            :   -127.861676040 Eh
Exchange energy change after final integration :     -0.000010114 Eh
Total energy after final integration           :  -3010.348533950 Eh
             **** ENERGY FILE WAS UPDATED (c60_o2_SP_20.en.tmp) ****

----------------
TOTAL SCF ENERGY
----------------

Total Energy       :      -3010.34853394989477 Eh          -81915.74812 eV

Components:
Nuclear Repulsion  :      11764.94439600326587 Eh          320140.41264 eV
Electronic Energy  :     -14775.29291983908661 Eh         -402056.16049 eV
One Electron Energy:     -27578.23725409979670 Eh         -750441.98742 eV
Two Electron Energy:      12802.94433426071009 Eh          348385.82693 eV

Virial components:
Potential Energy   :      -6006.91383916836458 Eh         -163456.43553 eV
Kinetic Energy     :       2996.56530521846980 Eh           81540.68740 eV
Virial Ratio       :          2.00459967573789

DFT components:
N(Alpha)           :      230.999466087053 electrons
N(Beta)            :      229.999465265818 electrons
N(Total)           :      460.998931352871 electrons
E(XC)              :     -291.341605179231 Eh       

---------------
SCF CONVERGENCE
---------------

  Last Energy change         ...    2.4571e-08  Tolerance :   1.0000e-08
  Last MAX-Density change    ...    3.6347e-04  Tolerance :   1.0000e-07
  Last RMS-Density change    ...    2.4190e-06  Tolerance :   5.0000e-09
  Last DIIS Error            ...    2.6494e-03  Tolerance :   5.0000e-07
  Last Orbital Gradient      ...    1.9031e-06  Tolerance :   1.0000e-05
  Last Orbital Rotation      ...    3.3346e-05  Tolerance :   1.0000e-05


----------------------
UHF SPIN CONTAMINATION
----------------------

Warning: in a DFT calculation there is little theoretical justification to 
         calculate <S**2> as in Hartree-Fock theory. We will do it anyways
         but you should keep in mind that the values have only limited relevance

Expectation value of <S**2>     :     1.775936
Ideal value S*(S+1) for S=0.5   :     0.750000
Deviation                       :     1.025936

----------------
ORBITAL ENERGIES
----------------
                 SPIN UP ORBITALS
  NO   OCC          E(Eh)            E(eV) 
   0   1.0000     -19.340251      -526.2750 
   1   1.0000     -19.339990      -526.2679 
   2   1.0000     -19.216260      -522.9010 
   3   1.0000     -19.215739      -522.8868 
   4   1.0000     -19.156055      -521.2628 
   5   1.0000     -19.156005      -521.2614 
   6   1.0000     -10.349037      -281.6116 
   7   1.0000     -10.348810      -281.6054 
   8   1.0000     -10.276338      -279.6334 
   9   1.0000     -10.275072      -279.5989 
  10   1.0000     -10.257180      -279.1121 
  11   1.0000     -10.241959      -278.6979 
  12   1.0000     -10.240841      -278.6675 
  13   1.0000     -10.238935      -278.6156 
  14   1.0000     -10.237502      -278.5766 
  15   1.0000     -10.231630      -278.4168 
  16   1.0000     -10.231298      -278.4078 
  17   1.0000     -10.230600      -278.3888 
  18   1.0000     -10.227368      -278.3008 
  19   1.0000     -10.226216      -278.2695 
  20   1.0000     -10.224008      -278.2094 
  21   1.0000     -10.223509      -278.1958 
  22   1.0000     -10.223486      -278.1952 
  23   1.0000     -10.223458      -278.1944 
  24   1.0000     -10.223060      -278.1836 
  25   1.0000     -10.222936      -278.1802 
  26   1.0000     -10.222831      -278.1774 
  27   1.0000     -10.222561      -278.1700 
  28   1.0000     -10.221339      -278.1368 
  29   1.0000     -10.221189      -278.1327 
  30   1.0000     -10.220905      -278.1250 
  31   1.0000     -10.220717      -278.1199 
  32   1.0000     -10.220143      -278.1042 
  33   1.0000     -10.220061      -278.1020 
  34   1.0000     -10.219828      -278.0957 
  35   1.0000     -10.219376      -278.0833 
  36   1.0000     -10.219298      -278.0812 
  37   1.0000     -10.218994      -278.0730 
  38   1.0000     -10.218843      -278.0689 
  39   1.0000     -10.218823      -278.0683 
  40   1.0000     -10.218745      -278.0662 
  41   1.0000     -10.218594      -278.0621 
  42   1.0000     -10.218510      -278.0598 
  43   1.0000     -10.218340      -278.0552 
  44   1.0000     -10.218045      -278.0471 
  45   1.0000     -10.217936      -278.0442 
  46   1.0000     -10.217660      -278.0367 
  47   1.0000     -10.217476      -278.0316 
  48   1.0000     -10.217274      -278.0262 
  49   1.0000     -10.217140      -278.0225 
  50   1.0000     -10.217081      -278.0209 
  51   1.0000     -10.216853      -278.0147 
  52   1.0000     -10.216624      -278.0085 
  53   1.0000     -10.216549      -278.0064 
  54   1.0000     -10.216385      -278.0020 
  55   1.0000     -10.215982      -277.9910 
  56   1.0000     -10.215693      -277.9831 
  57   1.0000     -10.215328      -277.9732 
  58   1.0000     -10.215295      -277.9723 
  59   1.0000     -10.215093      -277.9668 
  60   1.0000     -10.214901      -277.9616 
  61   1.0000     -10.214871      -277.9608 
  62   1.0000     -10.214687      -277.9558 
  63   1.0000     -10.214616      -277.9538 
  64   1.0000     -10.214584      -277.9530 
  65   1.0000     -10.214276      -277.9446 
  66   1.0000     -10.214068      -277.9389 
  67   1.0000     -10.213821      -277.9322 
  68   1.0000     -10.213099      -277.9125 
  69   1.0000     -10.213065      -277.9116 
  70   1.0000     -10.212602      -277.8990 
  71   1.0000     -10.212087      -277.8850 
  72   1.0000     -10.210111      -277.8312 
  73   1.0000      -1.373091       -37.3637 
  74   1.0000      -1.174310       -31.9546 
  75   1.0000      -1.167039       -31.7567 
  76   1.0000      -1.078546       -29.3487 
  77   1.0000      -1.076375       -29.2897 
  78   1.0000      -0.989770       -26.9330 
  79   1.0000      -0.972182       -26.4544 
  80   1.0000      -0.969872       -26.3916 
  81   1.0000      -0.968216       -26.3465 
  82   1.0000      -0.939343       -25.5608 
  83   1.0000      -0.934045       -25.4166 
  84   1.0000      -0.930162       -25.3110 
  85   1.0000      -0.929982       -25.3061 
  86   1.0000      -0.928466       -25.2648 
  87   1.0000      -0.900640       -24.5077 
  88   1.0000      -0.891815       -24.2675 
  89   1.0000      -0.888578       -24.1794 
  90   1.0000      -0.866187       -23.5702 
  91   1.0000      -0.865201       -23.5433 
  92   1.0000      -0.864005       -23.5108 
  93   1.0000      -0.856995       -23.3200 
  94   1.0000      -0.854850       -23.2617 
  95   1.0000      -0.844852       -22.9896 
  96   1.0000      -0.832950       -22.6657 
  97   1.0000      -0.818750       -22.2793 
  98   1.0000      -0.812762       -22.1164 
  99   1.0000      -0.805187       -21.9102 
 100   1.0000      -0.804341       -21.8872 
 101   1.0000      -0.802818       -21.8458 
 102   1.0000      -0.792836       -21.5742 
 103   1.0000      -0.790487       -21.5102 
 104   1.0000      -0.786804       -21.4100 
 105   1.0000      -0.786393       -21.3988 
 106   1.0000      -0.767184       -20.8761 
 107   1.0000      -0.740532       -20.1509 
 108   1.0000      -0.730232       -19.8706 
 109   1.0000      -0.729304       -19.8454 
 110   1.0000      -0.724634       -19.7183 
 111   1.0000      -0.724039       -19.7021 
 112   1.0000      -0.719298       -19.5731 
 113   1.0000      -0.714235       -19.4353 
 114   1.0000      -0.713482       -19.4148 
 115   1.0000      -0.711225       -19.3534 
 116   1.0000      -0.684424       -18.6241 
 117   1.0000      -0.675430       -18.3794 
 118   1.0000      -0.668067       -18.1790 
 119   1.0000      -0.662294       -18.0219 
 120   1.0000      -0.644986       -17.5510 
 121   1.0000      -0.635165       -17.2837 
 122   1.0000      -0.633491       -17.2382 
 123   1.0000      -0.630186       -17.1482 
 124   1.0000      -0.628794       -17.1104 
 125   1.0000      -0.627981       -17.0882 
 126   1.0000      -0.627770       -17.0825 
 127   1.0000      -0.625824       -17.0295 
 128   1.0000      -0.623431       -16.9644 
 129   1.0000      -0.616817       -16.7844 
 130   1.0000      -0.602636       -16.3986 
 131   1.0000      -0.600793       -16.3484 
 132   1.0000      -0.597297       -16.2533 
 133   1.0000      -0.578444       -15.7403 
 134   1.0000      -0.568164       -15.4605 
 135   1.0000      -0.562094       -15.2954 
 136   1.0000      -0.559106       -15.2141 
 137   1.0000      -0.554219       -15.0811 
 138   1.0000      -0.549362       -14.9489 
 139   1.0000      -0.546199       -14.8628 
 140   1.0000      -0.543317       -14.7844 
 141   1.0000      -0.536708       -14.6046 
 142   1.0000      -0.535821       -14.5804 
 143   1.0000      -0.534034       -14.5318 
 144   1.0000      -0.528751       -14.3881 
 145   1.0000      -0.524915       -14.2837 
 146   1.0000      -0.519348       -14.1322 
 147   1.0000      -0.515921       -14.0389 
 148   1.0000      -0.514660       -14.0046 
 149   1.0000      -0.510104       -13.8806 
 150   1.0000      -0.506612       -13.7856 
[...]
 12 C      5.8919     6.0000     0.1081     3.8541     3.8517     0.0024
 13 C      6.0938     6.0000    -0.0938     4.0089     4.0076     0.0013
 14 C      6.1615     6.0000    -0.1615     4.1263     4.1261     0.0002
 15 C      6.0104     6.0000    -0.0104     3.9784     3.9783     0.0001
 16 C      6.0049     6.0000    -0.0049     3.9939     3.9938     0.0000
 17 C      6.0051     6.0000    -0.0051     3.9933     3.9933     0.0001
 18 C      6.0516     6.0000    -0.0516     4.0493     4.0492     0.0001
 19 C      6.0197     6.0000    -0.0197     3.9991     3.9974     0.0017
 20 C      6.0805     6.0000    -0.0805     4.0521     4.0520     0.0001
 21 C      6.1649     6.0000    -0.1649     4.1210     4.1208     0.0002
 22 C      6.1506     6.0000    -0.1506     3.8942     3.8941     0.0001
 23 C      6.1621     6.0000    -0.1621     3.9872     3.9872     0.0001
 24 C      6.0158     6.0000    -0.0158     4.0054     4.0053     0.0001
 25 C      6.0112     6.0000    -0.0112     4.0007     4.0007     0.0000
 26 C      6.0084     6.0000    -0.0084     3.9958     3.9958     0.0000
 27 C      5.9921     6.0000     0.0079     3.9593     3.9577     0.0016
 28 C      6.0277     6.0000    -0.0277     4.0081     4.0079     0.0002
 29 C      5.9865     6.0000     0.0135     3.9473     3.9431     0.0041
 30 C      5.9690     6.0000     0.0310     3.9536     3.9531     0.0006
 31 C      5.8771     6.0000     0.1229     3.9116     3.9115     0.0001
 32 C      5.7043     6.0000     0.2957     3.7827     3.7827    -0.0000
 33 C      5.9331     6.0000     0.0669     3.7901     3.7875     0.0026
 34 C      6.1178     6.0000    -0.1178     4.0224     4.0160     0.0063
 35 C      6.0054     6.0000    -0.0054     3.9925     3.9924     0.0000
 36 C      6.0389     6.0000    -0.0389     4.0283     4.0282     0.0002
 37 C      6.0087     6.0000    -0.0087     3.9845     3.9837     0.0008
 38 C      6.0178     6.0000    -0.0178     3.9849     3.9836     0.0012
 39 C      6.0829     6.0000    -0.0829     4.0551     4.0549     0.0001
 40 C      5.9608     6.0000     0.0392     3.9385     3.9375     0.0010
 41 C      5.9211     6.0000     0.0789     3.8883     3.8882     0.0001
 42 C      5.7607     6.0000     0.2393     3.8834     3.8834     0.0000
 43 C      6.0891     6.0000    -0.0891     3.9724     3.9723     0.0001
 44 C      5.9966     6.0000     0.0034     3.9828     3.9826     0.0001
 45 C      6.0313     6.0000    -0.0313     4.0176     4.0174     0.0002
 46 C      6.0069     6.0000    -0.0069     3.9736     3.9710     0.0026
 47 C      6.0121     6.0000    -0.0121     3.9716     3.9700     0.0016
 48 C      5.9873     6.0000     0.0127     3.9647     3.9647     0.0001
 49 C      6.1700     6.0000    -0.1700     4.0926     4.0925     0.0001
 50 C      6.1748     6.0000    -0.1748     4.0066     4.0066     0.0001
 51 C      6.0925     6.0000    -0.0925     4.0118     4.0113     0.0005
 52 C      6.0336     6.0000    -0.0336     4.0032     4.0029     0.0002
 53 C      6.0222     6.0000    -0.0222     3.9891     3.9840     0.0051
 54 C      6.0476     6.0000    -0.0476     4.0207     4.0206     0.0001
 55 C      6.0434     6.0000    -0.0434     4.0201     4.0164     0.0038
 56 C      5.8922     6.0000     0.1078     3.8701     3.8689     0.0011
 57 C      6.1634     6.0000    -0.1634     4.1194     4.1193     0.0001
 58 C      5.9646     6.0000     0.0354     3.9943     3.9924     0.0019
 59 C      6.0290     6.0000    -0.0290     4.0005     4.0003     0.0001
 60 H      0.9078     1.0000     0.0922     1.0068     1.0068     0.0000
 61 C      6.2316     6.0000    -0.2316     3.8862     3.8862     0.0000
 62 H      0.9300     1.0000     0.0700     1.0181     1.0181     0.0000
 63 H      0.9004     1.0000     0.0996     0.9971     0.9971    -0.0000
 64 C      6.0191     6.0000    -0.0191     3.8950     3.8950     0.0000
 65 O      8.2545     8.0000    -0.2545     2.1632     2.1632    -0.0000
 66 H      0.8925     1.0000     0.1075     1.0126     1.0126     0.0000
 67 C      5.8304     6.0000     0.1696     4.4345     4.4345     0.0000
 68 C      5.3892     6.0000     0.6108     3.1116     3.1116     0.0000
 69 O      8.3165     8.0000    -0.3165     2.1932     2.1932     0.0000
 70 H      0.9109     1.0000     0.0891     1.0108     1.0108     0.0000
 71 C      5.8618     6.0000     0.1382     4.3627     4.3627     0.0000
 72 H      0.9073     1.0000     0.0927     1.0036     1.0036     0.0000
 73 O      8.2507     8.0000    -0.2507     2.1440     2.1440     0.0000
 74 H      0.9066     1.0000     0.0934     0.9982     0.9982    -0.0000
 75 O      8.3067     8.0000    -0.3067     2.2052     2.2052     0.0000
 76 C      5.9845     6.0000     0.0155     3.8842     3.8842     0.0000
 77 C      6.2358     6.0000    -0.2358     3.9642     3.9642     0.0000
 78 H      0.9301     1.0000     0.0699     1.0067     1.0067     0.0000
 79 H      0.9173     1.0000     0.0827     1.0036     1.0036     0.0000
 80 H      0.9165     1.0000     0.0835     1.0008     1.0008     0.0000
 81 O      7.9974     8.0000     0.0026     2.3456     1.8176     0.5280
 82 O      7.9951     8.0000     0.0049     2.3441     1.8159     0.5281

  Mayer bond orders larger than 0.100000
B(  0-C ,  1-C ) :   1.1675 B(  0-C ,  3-C ) :   1.4111 B(  0-C ,  4-C ) :   1.1984 
B(  1-C ,  2-C ) :   1.4202 B(  1-C ,  5-C ) :   1.2031 B(  2-C ,  6-C ) :   1.1275 
B(  2-C ,  7-C ) :   1.2141 B(  3-C ,  8-C ) :   1.1685 B(  3-C ,  9-C ) :   1.2045 
B(  4-C , 10-C ) :   1.4200 B(  4-C , 11-C ) :   1.1589 B(  5-C , 11-C ) :   1.2125 
B(  5-C , 12-C ) :   1.3510 B(  6-C , 13-C ) :   1.2401 B(  6-C , 14-C ) :   1.4312 
B(  7-C ,  9-C ) :   1.3610 B(  7-C , 15-C ) :   1.2041 B(  8-C , 16-C ) :   1.4591 
B(  8-C , 17-C ) :   1.1598 B(  9-C , 18-C ) :   1.1974 B( 10-C , 16-C ) :   1.1625 
B( 10-C , 19-C ) :   1.2001 B( 11-C , 20-C ) :   1.4138 B( 12-C , 14-C ) :   1.2167 
B( 12-C , 21-C ) :   1.1749 B( 13-C , 15-C ) :   1.1661 B( 13-C , 22-C ) :   1.4147 
B( 14-C , 23-C ) :   1.2082 B( 15-C , 24-C ) :   1.4220 B( 16-C , 25-C ) :   1.1648 
B( 17-C , 18-C ) :   1.1748 B( 17-C , 26-C ) :   1.4539 B( 18-C , 27-C ) :   1.4107 
B( 19-C , 28-C ) :   1.2123 B( 19-C , 29-C ) :   1.3564 B( 20-C , 29-C ) :   1.2111 
B( 20-C , 30-C ) :   1.1542 B( 21-C , 30-C ) :   1.4363 B( 21-C , 31-C ) :   1.1689 
B( 22-C , 23-C ) :   0.1316 B( 22-C , 32-C ) :   1.0003 B( 22-C , 33-C ) :   1.1730 
B( 23-C , 31-C ) :   1.0806 B( 23-C , 32-C ) :   1.4006 B( 24-C , 27-C ) :   1.1432 
B( 24-C , 34-C ) :   1.2189 B( 25-C , 28-C ) :   1.1663 B( 25-C , 35-C ) :   1.4566 
B( 26-C , 35-C ) :   1.1638 B( 26-C , 36-C ) :   1.1711 B( 27-C , 37-C ) :   1.2188 
B( 28-C , 38-C ) :   1.4026 B( 29-C , 39-C ) :   1.1950 B( 30-C , 40-C ) :   1.1976 
B( 31-C , 41-C ) :   1.5239 B( 32-C , 42-C ) :   0.4306 B( 32-C , 68-C ) :   0.8939 
B( 33-C , 34-C ) :   1.3666 B( 33-C , 43-C ) :   1.1901 B( 34-C , 44-C ) :   1.2234 
B( 35-C , 45-C ) :   1.1660 B( 36-C , 37-C ) :   1.4186 B( 36-C , 46-C ) :   1.1933 
B( 37-C , 44-C ) :   1.1413 B( 38-C , 47-C ) :   1.2111 B( 38-C , 48-C ) :   1.1572 
B( 39-C , 40-C ) :   1.1550 B( 39-C , 48-C ) :   1.4249 B( 40-C , 49-C ) :   1.4246 
B( 41-C , 49-C ) :   1.1618 B( 41-C , 50-C ) :   1.1116 B( 42-C , 43-C ) :   1.0558 
B( 42-C , 50-C ) :   1.3647 B( 42-C , 68-C ) :   0.9046 B( 43-C , 50-C ) :   0.1590 
B( 43-C , 51-C ) :   1.4139 B( 44-C , 52-C ) :   1.4158 B( 45-C , 46-C ) :   1.2177 
B( 45-C , 47-C ) :   1.3972 B( 46-C , 53-C ) :   1.3463 B( 47-C , 54-C ) :   1.1668 
B( 48-C , 55-C ) :   1.1999 B( 49-C , 56-C ) :   1.1858 B( 50-C , 57-C ) :   1.2064 
B( 51-C , 52-C ) :   1.1606 B( 51-C , 58-C ) :   1.2212 B( 52-C , 53-C ) :   1.2197 
B( 53-C , 59-C ) :   1.2069 B( 54-C , 55-C ) :   1.2013 B( 54-C , 59-C ) :   1.4227 
B( 55-C , 56-C ) :   1.3637 B( 56-C , 57-C ) :   1.2030 B( 57-C , 58-C ) :   1.4404 
B( 58-C , 59-C ) :   1.1272 B( 60-H , 61-C ) :   0.9859 B( 61-C , 62-H ) :   0.9861 
B( 61-C , 64-C ) :   0.9426 B( 61-C , 66-H ) :   0.9851 B( 63-H , 64-C ) :   0.9852 
B( 64-C , 65-O ) :   0.9045 B( 64-C , 70-H ) :   0.9942 B( 65-O , 67-C ) :   1.2159 
B( 65-O , 68-C ) :  -0.1200 B( 67-C , 68-C ) :   0.8377 B( 67-C , 69-O ) :   2.0965 
B( 68-C , 71-C ) :   0.8100 B( 68-C , 73-O ) :  -0.1024 B( 71-C , 73-O ) :   1.1966 
B( 71-C , 75-O ) :   2.1078 B( 72-H , 77-C ) :   0.9862 B( 73-O , 76-C ) :   0.8790 
B( 74-H , 76-C ) :   0.9830 B( 76-C , 77-C ) :   0.9766 B( 76-C , 80-H ) :   0.9839 
B( 77-C , 78-H ) :   0.9922 B( 77-C , 79-H ) :   0.9869 B( 81-O , 82-O ) :   1.8074 


-------
TIMINGS
-------

Total SCF time: 0 days 0 hours 58 min 41 sec 

Total time                  ....    3521.956 sec
Sum of individual times     ....    3511.863 sec  ( 99.7%)

SCF preparation             ....       2.911 sec  (  0.1%)
Fock matrix formation       ....    3233.210 sec  ( 91.8%)
  Startup                   ....      14.763 sec  (  0.5% of F)
  Split-RI-J                ....     230.695 sec  (  7.1% of F)
  Chain of spheres X        ....    2689.153 sec  ( 83.2% of F)
  XC integration            ....     248.201 sec  (  7.7% of F)
    XC Preparation          ....       0.000 sec  (  0.0% of XC)
    Basis function eval.    ....      34.540 sec  ( 13.9% of XC)
    Density eval.           ....     107.561 sec  ( 43.3% of XC)
    XC-Functional eval.     ....       1.625 sec  (  0.7% of XC)
    XC-Potential eval.      ....      75.339 sec  ( 30.4% of XC)
Diagonalization             ....       0.000 sec  (  0.0%)
Density matrix formation    ....      62.909 sec  (  1.8%)
Total Energy calculation    ....      12.996 sec  (  0.4%)
Population analysis         ....       2.278 sec  (  0.1%)
Orbital Transformation      ....       6.503 sec  (  0.2%)
Orbital Orthonormalization  ....       0.000 sec  (  0.0%)
DIIS solution               ....     114.821 sec  (  3.3%)
SOSCF solution              ....      76.236 sec  (  2.2%)
Finished LeanSCF after 3523.7 sec

Maximum memory used throughout the entire LEANSCF-calculation: 831.6 MB


-------------------------------------------------------------------------------
                          DFT DISPERSION CORRECTION                            
                                                                               
                              DFTD3 V3.1  Rev 1                                
                              USING zero damping                               
-------------------------------------------------------------------------------
The omegaB97X-D3 functional is recognized. Fit by Chai et al.
Active option DFTDOPT                   ...         3   

molecular C6(AA) [au] = 129000.263136 


            DFT-D V3
 parameters
 s6 scaling factor         :     1.0000 
 rs6 scaling factor        :     1.2810 
 s8 scaling factor         :     1.0000 
 rs8 scaling factor        :     1.0940 
 Damping factor alpha6     :    14.0000 
 Damping factor alpha8     :    16.0000 
 ad hoc parameters k1-k3   :    16.0000     1.3333    -4.0000 

 Edisp/kcal,au: -49.662177013389  -0.079141708243 
 E6   /kcal   : -24.965226037 
 E8   /kcal   : -24.696950977 
 % E8         :  49.729900021 

-------------------------   ----------------
Dispersion correction           -0.079141708
-------------------------   ----------------


-------------------------   --------------------
FINAL SINGLE POINT ENERGY     -3010.427675658138
-------------------------   --------------------



           ************************************************************
           *        Program running with 28 parallel MPI-processes    *
           *              working on a common directory               *
           ************************************************************

------------------------------------------------------------------------------
                              ORCA PROPERTY CALCULATIONS
------------------------------------------------------------------------------

GBWName                                 ... c60_o2_SP_20.gbw
Number of atoms                         ...     83
Number of basis functions               ...   2403
Max core memory                         ...   3500 MB

Electric properties:
Dipole moment                           ... YES
Quadrupole moment                       ...  NO
Static polarizability (Dipole/Dipole)   ...  NO
Static polarizability (Dipole/Quad.)    ...  NO
Static polarizability (Quad./Quad.)     ...  NO
Static polarizability (Velocity)        ...  NO

Atomic electric properties:
Dipole moment                           ...  NO
Quadrupole moment                       ...  NO
Static polarizability                   ...  NO

Choice of electric origin               ... Center of mass
Position of electric origin             ...    -0.125748     1.769932     0.486819

General magnetic properties:
Magnetizability                         ...  NO

EPR properties:
g-Tensor (aka g-matrix)                 ...  NO
Zero-Field splitting spin-orbit         ...  NO
Zero-field splitting spin-spin          ...  NO
Hyperfine couplings                     ...  NO (   0 nuclei)
Quadrupole couplings                    ...  NO (   0 nuclei)
Contact density                         ...  NO (   0 nuclei)

NMR properties:
Chemical shifts                         ...  NO (   0 nuclei)
Spin-rotation constants                 ...  NO (   0 nuclei)
Spin-spin couplings                     ...  NO (   0 nuclei,    0 pairs)

Choice of magnetic origin               ... GIAO
Position of magnetic origin             ...     0.000000     0.000000     0.000000

Properties with geometric perturbations:
SCF Hessian                             ...  NO
IR spectrum                             ...  NO
VCD spectrum                            ...  NO
X-ray spectroscopy properties:
SCF XES/XAS/RIXS spectra                ...  NO


-------------
DIPOLE MOMENT
-------------

Method             : SCF
Type of density    : Electron Density
Multiplicity       :   2
Irrep              :   0
Energy             : -3010.3485339498947724 Eh
Relativity type    : 
Basis              : AO
                                X                 Y                 Z
Electronic contribution:     11.396757463     -48.918165739      -3.698448331
Nuclear contribution   :    -11.770216462      51.780109729       4.244255174
                        -----------------------------------------
Total Dipole Moment    :     -0.373458998       2.861943990       0.545806842
                        -----------------------------------------
Magnitude (a.u.)       :      2.937362785
Magnitude (Debye)      :      7.466182853



--------------------
Rotational spectrum 
--------------------
 
Rotational constants in cm-1:             0.002209             0.001211             0.001111 
Rotational constants in MHz :            66.210511            36.309632            33.292837 

Dipole components along the rotational axes: 
x,y,z [a.u.] :    -2.923468    -0.285348    -0.003513 
x,y,z [Debye]:    -7.430865    -0.725296    -0.008929 

 

Dipole moment calculation done in   0.3 sec 

Maximum memory used throughout the entire PROP-calculation: 493.3 MB

--------------------------------
SUGGESTED CITATIONS FOR THIS RUN
--------------------------------

Below you find a list of papers that are relevant to this ORCA run
We neither can nor want to force you to cite these papers, but we appreciate if you do
You receive ORCA, which is the product of decades of hard work by many enthusiastic individuals, for free
The only thing we kindly ask in return is that you cite our papers,
We deeply appreciate it, if you show your appreciation for ORCA by not just citing the generic ORCA reference.

Please note that relegating all ORCA citations to the supporting information does *not* help us.
SI sections are not indexed - citations you put there will not count into any citation statistics
But we need these citations in order to attract the funding resources that allow us to do what we are doing

Therefore, if you are a happy ORCA user, please consider citing a few of the papers listed below in the main body of your paper

In addition to the list printed below, the program has created the file c60_o2_SP_20.bibtex that contains the list in bibtex format
You can import this file easily into all common literature databanks and citation aid programs


List of essential papers. We consider these as the minimum necessary citations

  1. Neese,F.
     Software update: the ORCA program system, version 5.0
     WIRES Comput. Molec. Sci., 2022 12(1)e1606
     doi.org/10.1002/wcms.1606

List of papers to cite with high priority. The work reported in these papers was absolutely
necessary for this run to complete.
Our perspective: the developers of density functionals and basis sets usually get cited in chemistry papers
Good! But without the algorithms to do something with them, the functionals or basis sets would not do anything.
Hence, in our opinion, the algorithm design and method developments papers are equally worthy of getting cited

  1. Neese,F.
     An improvement of the resolution of the identity approximation for the formation of the Coulomb matrix
     J. Comp. Chem., 2003 24(14)1740-1747
     doi.org/10.1002/jcc.10318
  2. Neese,F.; Wennmohs,F.; Hansen,A.; Becker,U.
     Efficient, approximate and parallel Hartree-Fock and hybrid DFT calculations. A 'chain-of-spheres' algorithm for the Hartree-Fock exchange
     Chem. Phys., 2009 356(1-3)98-109
     doi.org/10.1016/j.chemphys.2008.10.036
  3. Helmich-Paris,B.; de Souza,B.; Neese,F.; Izsák,R.
     An improved chain of spheres for exchange algorithm
     J. Chem. Phys., 2021 155 104109
     doi.org/doi: 10.1063/5.0058766.
  4. Neese,F.
     The SHARK Integral Generation and Digestion System
     J. Comp. Chem., 2022  1-16
     doi.org/10.1002/jcc.26942
  5. Grimme,S.; Antony,J.; Ehrlich,S.; Krieg,H.
     A consistent and accurate ab initio parametrization of density functional dispersion correction (DFT-D) for the 94 elements H-Pu
     J. Chem. Phys., 2010 132 154104
     doi.org/10.1063/1.3382344

List of suggested additional citations. These are papers that are important in the 'surrounding' of 
of this run, or papers that preceded the highly important papers. If you like your results we are grateful for a citation.

  1. Izsak,R.; Neese,F.
     An overlap fitted chain of spheres exchange method
     J. Chem. Phys., 2011 135 144105
     doi.org/10.1063/1.3646921
  2. Izsak,R.; Hansen,A.; Neese,F.
     The resolution of identity and chain of spheres approximations for the LPNO-CCSD singles Fock term
     Molec. Phys., 2012 110 2413-2417
     doi.org/10.1080/00268976.2012.687466
  3. Neese,F.
     The ORCA program system
     WIRES Comput. Molec. Sci., 2012 2(1)73-78
     doi.org/10.1002/wcms.81
  4. Izsak,R.; Neese,F.; Klopper,W.
     Robust fitting techniques in the chain of spheres approximation to the Fock exchange: The role of the complementary space
     J. Chem. Phys., 2013 139 
     doi.org/10.1063/1.4819264
  5. Neese,F.
     Software update: the ORCA program system, version 4.0
     WIRES Comput. Molec. Sci., 2018 8(1)1-6
     doi.org/10.1002/wcms.1327
  6. Neese,F.; Wennmohs,F.; Becker,U.; Riplinger,C.
     The ORCA quantum chemistry program package
     J. Chem. Phys., 2020 152 Art. No. L224108
     doi.org/10.1063/5.0004608

List of optional additional citations

  1. Neese,F.
     Approximate second-order SCF convergence for spin unrestricted wavefunctions
     Chem. Phys. Lett., 2000 325(1-3)93-98
     doi.org/10.1016/s0009-2614(00)00662-x

Timings for individual modules:

Sum of individual times          ...     3551.439 sec (=  59.191 min)
Startup calculation              ...       15.594 sec (=   0.260 min)   0.4 %
SCF iterations                   ...     3533.313 sec (=  58.889 min)  99.5 %
Property calculations            ...        2.532 sec (=   0.042 min)   0.1 %
                             ****ORCA TERMINATED NORMALLY****
TOTAL RUN TIME: 0 days 0 hours 59 minutes 13 seconds 86 msec
