
                                 *****************
                                 * O   R   C   A *
                                 *****************

                                            #,                                       
                                            ###                                      
                                            ####                                     
                                            #####                                    
                                            ######                                   
                                           ########,                                 
                                     ,,################,,,,,                         
                               ,,#################################,,                 
                          ,,##########################################,,             
                       ,#########################################, ''#####,          
                    ,#############################################,,   '####,        
                  ,##################################################,,,,####,       
                ,###########''''           ''''###############################       
              ,#####''   ,,,,##########,,,,          '''####'''          '####       
            ,##' ,,,,###########################,,,                        '##       
           ' ,,###''''                  '''############,,,                           
         ,,##''                                '''############,,,,        ,,,,,,###''
      ,#''                                            '''#######################'''  
     '                                                          ''''####''''         
             ,#######,   #######,   ,#######,      ##                                
            ,#'     '#,  ##    ##  ,#'     '#,    #''#        ,####,   ,####,        
            ##       ##  ##   ,#'  ##            #'  '#       #'       #'  '#        
            ##       ##  #######   ##           ,######,      #####,   #    #        
            '#,     ,#'  ##    ##  '#,     ,#' ,#      #,     #,   #   #,  ,#        
             '#######'   ##     ##  '#######'  #'      '#     '####' # '####'        



                #########################################################
                #                        -***-                          #
                #          Department of theory and spectroscopy        #
                #                                                       #
                #                      Frank Neese                      #
                #                                                       #
                #     Directorship, Architecture, Infrastructure        #
                #                    SHARK, DRIVERS                     #
                #        Core code/Algorithms in most modules           #
                #                                                       #
                #        Max Planck Institute fuer Kohlenforschung      #
                #                Kaiser Wilhelm Platz 1                 #
                #                 D-45470 Muelheim/Ruhr                 #
                #                      Germany                          #
                #                                                       #
                #                  All rights reserved                  #
                #                        -***-                          #
                #########################################################


                         Program Version 6.0.1  -  RELEASE   -


 With contributions from (in alphabetic order):
[Max-Planck-Institut fuer Kohlenforschung]                               
  Daniel Aravena         : Magnetic Suceptibility                        
  Michael Atanasov       : Ab Initio Ligand Field Theory (pilot matlab implementation)
  Alexander A. Auer      : GIAO ZORA, VPT2 properties, NMR spectrum      
  Ute Becker             : All parallelization in ORCA, NUMFREQ, NUMCALC 
  Giovanni Bistoni       : ED, misc. LED, open-shell LED, HFLD           
  Martin Brehm           : Molecular dynamics                            
  Dmytro Bykov           : pre 5.0 version of the SCF Hessian            
  Marcos Casanova-Páez   : Triplet and SCS-CIS(D). UHF-(DLPNO)-IP/EA/STEOM-CCSD. UHF-CVS-IP/STEOM-CCSD   
  Vijay G. Chilkuri      : MRCI spin determinant printing, contributions to CSF-ICE 
  Pauline Colinet        : FMM embedding                                 
  Dipayan Datta          : RHF DLPNO-CCSD density                        
  Achintya Kumar Dutta   : EOM-CC, STEOM-CC                              
  Nicolas Foglia         : Exact transition moments, OPA infrastructure, MCD improvements    
  Dmitry Ganyushin       : Spin-Orbit,Spin-Spin,Magnetic field MRCI      
  Miquel Garcia-Rates    : C-PCM and meta-GGA Hessian, CCSD/C-PCM, Gaussian charge scheme 
  Tiago L. C. Gouveia    : GS-ROHF, GS-ROCIS                             
  Yang Guo               : DLPNO-NEVPT2, F12-NEVPT2, CIM, IAO-localization        
  Andreas Hansen         : Spin unrestricted coupled pair/coupled cluster methods 
  Ingolf Harden          : AUTO-CI MPn and infrastructure                
  Benjamin Helmich-Paris : MC-RPA, TRAH-(SCF,CASSCF), AVAS, COSX integrals, SCF dyn. polar. 
  Lee Huntington         : MR-EOM, pCC                                   
  Robert Izsak           : Overlap fitted RIJCOSX, COSX-SCS-MP3, EOM     
  Riya Kayal             : Wick's Theorem for AUTO-CI, AUTO-CI UHF-CCSDT 
  Emily Kempfer          : AUTO-CI, RHF CISDT and CCSDT                  
  Christian Kollmar      : KDIIS, OOCD, Brueckner-CCSD(T), CCSD density, CASPT2, CASPT2-K, improved NEVPT2 
  Axel Koslowski         : Symmetry handling                             
  Simone Kossmann        : meta-GGA functionals, TD-DFT gradient, OOMP2, (MP2 Hessian; deprecated post 5.0) 
  Lucas Lang             : DCDCAS                                        
  Marvin Lechner         : AUTO-CI (C++ implementation), FIC-MRCC        
  Spencer Leger          : CASSCF response                               
  Dagmar Lenk            : GEPOL surface, SMD, ORCA-2-JSON               
  Dimitrios Liakos       : Extrapolation schemes; Compound Job, initial MDCI parallelization 
  Dimitrios Manganas     : Further ROCIS development; embedding schemes. LFT, Crystal Embedding 
  Dimitrios Pantazis     : SARC Basis sets                               
  Anastasios Papadopoulos: AUTO-CI, single reference methods and gradients 
  Taras Petrenko         : pre 6.0 DFT Hessian and TD-DFT gradient, (ASA, deprecated), ECA, 1-Electron XAS/XES, NRVS 
  Peter Pinski           : DLPNO-MP2, DLPNO-MP2 Gradient                 
  Christoph Reimann      : Effective Core Potentials                     
  Marius Retegan         : Local ZFS, SOC                                
  Christoph Riplinger    : Optimizer, TS searches, QM/MM, DLPNO-CCSD(T), (RO)-DLPNO pert. Triples 
  Michael Roemelt        : Original ROCIS implementation                 
  Masaaki Saitow         : Open-shell DLPNO-CCSD energy and density      
  Barbara Sandhoefer     : DKH picture change effects                    
  Kantharuban Sivalingam : CASSCF convergence/infrastructure, NEVPT2 and variants, FIC-MRCI 
  Bernardo de Souza      : ESD, SOC TD-DFT                               
  Georgi L. Stoychev     : AutoAux, RI-MP2 NMR, DLPNO-MP2 response, X2C  
  Van Anh Tran           : RI-MP2 g-tensors                              
  Willem Van den Heuvel  : Paramagnetic NMR                              
  Zikuan Wang            : NOTCH, Electric field optimization            
  Frank Wennmohs         : Technical directorship and infrastructure     
  Hang Xu                : AUTO-CI-Response properties                   
                                                                         
[FACCTs GmbH]                                                            
  Markus Bursch, Miquel Garcia-Rates, Christoph Riplinger, Bernardo de Souza, Georgi L. Stoychev 
                                                                 
  APM, Basis sets (HGBS, AHGBS, def-TZVP (Ac-Lr), def2-XVPD (La-Lu)), CI-OPT, improved COSX, DLPNO-Multilevel,           
  DOCKER, DRACO, updates on ESD, GOAT, IRC, LR-CPCM, MBIS, meta-GGA TD-DFT gradient, ML-optimized integration grids, 
  MM, NACMEs, nearIR, NEB, NEB-TS, NL-DFT gradient (VV10), 2- and 3-layer-ONIOM, interface openCOSMO-RS, QMMM,   
  Crystal-QMMM, SF, symmetry and pop. for TD-DFT, r2SCAN hybrids, SOLVATOR                                   
                                                                         
[Other institutions]                                                     
  V. Asgeirsson          : NEB                                           
  Christoph Bannwarth    : sTDA-DFT, sTD-DFT, PBEh-3c, B97-3c, D3        
  Sebastian Ehlert       : rSCAN, r2SCAN, r2SCAN-3c, D4, dhf basis sets  
  Marvin Friede          : D4 for Fr, Ra, Ac-Lr                          
  Lars Goerigk           : TD-DFT with DH, B97 family of functionals     
  Stefan Grimme          : VdW corrections, initial TS optimization, DFT functionals, gCP, sTDA/sTD-DF 
  Waldemar Hujo          : DFT-NL                                        
  H. Jonsson             : NEB                                           
  Holger Kruse           : gCP                                           
  Marcel Mueller         : wB97X-3c, vDZP basis set                      
  Hagen Neugebauer       : wr2SCAN                                       
  Tobias Risthaus        : range-separated hybrid DFT                    
  Lukas Wittmann         : regularized MP2, r2SCAN double-hybrids, wr2SCAN        
                                                                         
We gratefully acknowledge several colleagues who have allowed us to      
interface, adapt or use parts of their codes:                            
  Ed Valeev, F. Pavosevic, A. Kumar             : LibInt (2-el integral package), F12 methods 
  Garnet Chan, S. Sharma, J. Yang, R. Olivares  : DMRG                   
  Ulf Ekstrom                                   : XCFun DFT Library      
  Mihaly Kallay                                 : mrcc  (arbitrary order and MRCC methods)
  Frank Weinhold                                : gennbo (NPA and NBO analysis)           
  Simon Mueller                                 : openCOSMO-RS                            
  Christopher J. Cramer and Donald G. Truhlar   : smd solvation model                     
  S Lehtola, MJT Oliveira, MAL Marques          : LibXC Library                           
  Liviu Ungur et al                             : ANISO software                          


 Your calculation uses the libint2 library for the computation of 2-el integrals
 For citations please refer to: http://libint.valeyev.net

 Your ORCA version has been built with support for libXC version: 6.2.2
 For citations please refer to: https://libxc.gitlab.io

 This ORCA versions uses:
   CBLAS   interface :  Fast vector & matrix operations
   LAPACKE interface :  Fast linear algebra routines
   SCALAPACK package :  Parallel linear algebra routines
   Shared memory     :  Shared parallel matrices
   BLAS/LAPACK       :  OpenBLAS 0.3.27  USE64BITINT DYNAMIC_ARCH NO_AFFINITY SkylakeX SINGLE_THREADED
        Core in use  :  SkylakeX
   Copyright (c) 2011-2014, The OpenBLAS Project


NOTE: MaxCore=3000 MB was set to SCF,MP2,MDCI,CIPSI,MRCI and CIS
      => If you want to overwrite this, your respective input block should be placed after the MaxCore statement
Your calculation utilizes the atom-pairwise dispersion correction
with the Becke-Johnson damping scheme (D3BJ)


Warning: RI is on but no J-basis has been assigned. Assigning Def2/J (nothing to worry about!)
================================================================================

----- Orbital basis set information -----
Your calculation utilizes the basis: def2-SVP
   F. Weigend and R. Ahlrichs, Phys. Chem. Chem. Phys. 7, 3297 (2005).

----- AuxJ basis set information -----
Your calculation utilizes the auxiliary basis: def2/J
   F. Weigend, Phys. Chem. Chem. Phys. 8, 1057 (2006).

================================================================================
                                        WARNINGS
                       Please study these warnings very carefully!
================================================================================


WARNING: Geometry Optimization
  ===> : Switching off AutoStart
         For restart on a previous wavefunction, please use MOREAD

================================================================================
                                       INPUT FILE
================================================================================
NAME = 4nitroaniline_water_2_OPT.inp
|  1> ! B3LYP def2-SVP OPT TightSCF D3BJ
|  2> 
|  3> 
|  4> %maxcore 3000
|  5> 
|  6> %pal
|  7> nprocs 40
|  8> end
|  9> 
| 10> * xyz 0 1
| 11>   O           2.65649636259722     -0.47225647465979      1.34601967572431
| 12>   O           2.72590803050352     -0.32659986625729     -0.81395240623087
| 13>   N           2.15584431603809     -0.21066142059212      0.26141395243552
| 14>   N          -3.15534034716612      1.70036718667686      0.21267699460614
| 15>   C           0.77292601333439      0.27673745228189      0.24975183007654
| 16>   C          -1.86049344062733      1.19307280562640      0.22733258158746
| 17>   C           0.08816843375511      0.41916800350656      1.45776326847350
| 18>   C           0.16631005263456      0.59226579958604     -0.96930275060723
| 19>   C          -1.22404971584233      0.87616169192646      1.44381041845377
| 20>   C          -1.14323495431093      1.05203285808297     -0.98090344118219
| 21>   H           0.59464339829403      0.16391935566362      2.38794494596239
| 22>   H           0.73678563838436      0.47416782875892     -1.89010386117005
| 23>   H          -1.76980624443434      0.98685352931606      2.38453121558288
| 24>   H          -1.62220117594380      1.34921813838842     -1.91527894985989
| 25>   H          -3.68865023487106      1.55895315368196      1.07035595146289
| 26>   H          -3.70309740230744      1.48339805279916     -0.61598292444306
| 27>   O          -2.73240797150462      3.67205306226871     -1.91030492937757
| 28>   H          -1.80434157747472      3.94183042417959     -1.87492316324347
| 29>   H          -2.92898578475857      3.43556898146552     -0.98836313705110                               
| 30> *           
| 31> 
| 32> 
| 33>                          ****END OF INPUT****
================================================================================

                       *****************************
                       * Geometry Optimization Run *
                       *****************************

Geometry optimization settings:
Update method            Update   .... BFGS
Choice of coordinates    CoordSys .... (2022) Redundant Internals
Initial Hessian          InHess   .... Almloef's Model
Max. no of cycles        MaxIter  .... 57

Convergence Tolerances:
Energy Change            TolE     ....  5.0000e-06 Eh
Max. Gradient            TolMAXG  ....  3.0000e-04 Eh/bohr
RMS Gradient             TolRMSG  ....  1.0000e-04 Eh/bohr
Max. Displacement        TolMAXD  ....  4.0000e-03 bohr
RMS Displacement         TolRMSD  ....  2.0000e-03 bohr
Strict Convergence                .... False

------------------------------------------------------------------------------
                        ORCA OPTIMIZATION COORDINATE SETUP
------------------------------------------------------------------------------

The optimization will be done in redundant internal coordinates (2022)
Making redundant internal coordinates   ...  (2022 redundants) done
Evaluating the initial hessian          ...  (Almloef) done
Evaluating the coordinates              ...  done
Calculating the B-matrix                .... done
Calculating the G-matrix                .... done
Diagonalizing the G-matrix              .... done
The first mode is                       ....  102
The number of degrees of freedom        ....   51

    -----------------------------------------------------------------
                    Redundant Internal Coordinates


    -----------------------------------------------------------------
         Definition                    Initial Value    Approx d2E/dq
    -----------------------------------------------------------------
      1. B(N   2,O   0)                  1.2229         0.926040   
      2. B(N   2,O   1)                  1.2226         0.926912   
      3. B(C   4,N   2)                  1.4663         0.422744   
      4. B(C   5,N   3)                  1.3908         0.558053   
      5. B(C   6,C   4)                  1.3959         0.611453   
      6. B(C   7,C   4)                  1.3977         0.607315   
      7. B(C   8,C   5)                  1.4090         0.582650   
      8. B(C   8,C   6)                  1.3896         0.625743   
      9. B(C   9,C   7)                  1.3880         0.629500   
     10. B(C   9,C   5)                  1.4122         0.575956   
     11. B(H  10,C   6)                  1.0895         0.360825   
     12. B(H  11,C   7)                  1.0896         0.360608   
     13. B(H  12,C   8)                  1.0932         0.355908   
     14. B(H  13,C   9)                  1.0912         0.358475   
     15. B(H  14,N   3)                  1.0198         0.417378   
     16. B(H  15,N   3)                  1.0168         0.422102   
     17. B(O  16,H  15)                  2.7217         0.000804   
     18. B(O  16,H  13)                  2.5745         0.001381   
     19. B(H  17,H  13)                  2.5993         0.000269   
     20. B(H  17,O  16)                  0.9671         0.506515   
     21. B(H  18,H  13)                  2.6305         0.000240   
     22. B(H  18,H  15)                  2.1328         0.001495   
     23. B(H  18,N   3)                  2.1224         0.007268   
     24. B(H  18,O  16)                  0.9719         0.497758   
     25. A(O   0,N   2,C   4)          117.6628         0.426955   
     26. A(O   1,N   2,C   4)          117.6622         0.427027   
     27. A(O   0,N   2,O   1)          124.6750         0.489286   
     28. A(C   5,N   3,H  18)          101.8227         0.193419   
     29. A(C   5,N   3,H  15)          115.6156         0.350845   
     30. A(H  15,N   3,H  18)           76.7453         0.173488   
     31. A(H  14,N   3,H  18)          130.1697         0.173273   
     32. A(C   5,N   3,H  14)          115.3053         0.350179   
     33. A(H  14,N   3,H  15)          111.9694         0.300325   
     34. A(N   2,C   4,C   6)          119.3197         0.401828   
     35. A(C   6,C   4,C   7)          121.2553         0.431378   
     36. A(N   2,C   4,C   7)          119.4250         0.401348   
     37. A(N   3,C   5,C   8)          120.7762         0.418503   
     38. A(N   3,C   5,C   9)          120.0203         0.417642   
     39. A(C   8,C   5,C   9)          119.1302         0.423620   
     40. A(C   8,C   6,H  10)          121.6433         0.353581   
     41. A(C   4,C   6,H  10)          119.1393         0.352201   
     42. A(C   4,C   6,C   8)          119.2165         0.433702   
     43. A(C   4,C   7,C   9)          119.4426         0.433639   
     44. A(C   9,C   7,H  11)          121.5214         0.353903   
     45. A(C   4,C   7,H  11)          119.0356         0.351761   
     46. A(C   6,C   8,H  12)          119.7421         0.352760   
     47. A(C   5,C   8,C   6)          120.6095         0.429958   
     48. A(C   5,C   8,H  12)          119.6479         0.348535   
     49. A(C   5,C   9,C   7)          120.3417         0.429529   
     50. A(C   7,C   9,H  13)          120.7635         0.353548   
     51. A(C   5,C   9,H  13)          118.8472         0.348278   
     52. A(C   9,H  13,H  18)           97.6041         0.119806   
     53. A(O  16,H  13,H  18)           21.4877         0.097652   
     54. A(O  16,H  13,H  17)           21.5401         0.097879   
     55. A(C   9,H  13,H  17)          106.8041         0.120617   
     56. A(C   9,H  13,O  16)          115.6796         0.145568   
     57. A(H  17,H  13,H  18)           33.7610         0.093835   
     58. A(N   3,H  15,H  18)           75.6078         0.136791   
     59. A(O  16,H  15,H  18)           18.4656         0.100579   
     60. A(N   3,H  15,O  16)           91.3662         0.140332   
     61. A(H  17,O  16,H  18)          103.1362         0.318183   
     62. A(H  13,O  16,H  15)           55.1927         0.103056   
     63. A(H  15,O  16,H  18)           44.0339         0.142283   
     64. A(H  15,O  16,H  17)          123.3092         0.142494   
     65. A(H  13,O  16,H  18)           82.5024         0.149220   
     66. A(H  13,O  16,H  17)           80.6733         0.149459   
     67. A(H  13,H  17,O  16)           77.7866         0.122791   
     68. A(H  15,H  18,O  16)          117.5005         0.138608   
     69. A(N   3,H  18,O  16)          139.2280         0.176700   
     70. A(H  13,H  18,H  15)           61.0449         0.096127   
     71. A(N   3,H  18,H  13)           66.6686         0.101599   
     72. A(H  13,H  18,O  16)           76.0099         0.121796   
     73. A(N   3,H  18,H  15)           27.6469         0.108058   
     74. D(C   6,C   4,N   2,O   0)     -0.1439         0.014082   
     75. D(C   7,C   4,N   2,O   0)    179.7316         0.014082   
     76. D(C   7,C   4,N   2,O   1)     -0.2759         0.014082   
     77. D(C   6,C   4,N   2,O   1)    179.8485         0.014082   
     78. D(C   8,C   5,N   3,H  18)    128.1466         0.027007   
     79. D(C   8,C   5,N   3,H  14)    -17.7426         0.027007   
     80. D(C   8,C   5,N   3,H  15)   -151.0266         0.027007   
     81. D(C   9,C   5,N   3,H  15)     32.1130         0.027007   
     82. D(C   9,C   5,N   3,H  14)    165.3971         0.027007   
     83. D(C   8,C   6,C   4,C   7)      0.3811         0.025829   
     84. D(H  10,C   6,C   4,N   2)     -0.0734         0.025829   
     85. D(H  10,C   6,C   4,C   7)   -179.9466         0.025829   
     86. D(C   8,C   6,C   4,N   2)   -179.7457         0.025829   
     87. D(C   9,C   7,C   4,N   2)    179.9189         0.025460   
     88. D(C   9,C   7,C   4,C   6)     -0.2080         0.025460   
     89. D(H  11,C   7,C   4,C   6)    179.5680         0.025460   
     90. D(H  11,C   7,C   4,N   2)     -0.3050         0.025460   
     91. D(H  12,C   8,C   6,H  10)      0.0763         0.027125   
     92. D(H  12,C   8,C   6,C   4)    179.7401         0.027125   
     93. D(C   5,C   8,C   6,H  10)   -179.6487         0.027125   
     94. D(C   5,C   8,C   6,C   4)      0.0151         0.027125   
     95. D(H  12,C   8,C   5,C   9)    179.7057         0.023334   
     96. D(H  12,C   8,C   5,N   3)      2.8178         0.023334   
     97. D(C   6,C   8,C   5,C   9)     -0.5691         0.023334   
     98. D(C   6,C   8,C   5,N   3)   -177.4570         0.023334   
     99. D(C   5,C   9,C   7,C   4)     -0.3606         0.027473   
    100. D(H  13,C   9,C   5,C   8)   -176.7653         0.022776   
    101. D(H  13,C   9,C   5,N   3)      0.1466         0.022776   
    102. D(C   7,C   9,C   5,C   8)      0.7432         0.022776   
    103. D(C   5,C   9,C   7,H  11)    179.8691         0.027473   
    104. D(C   7,C   9,C   5,N   3)    177.6551         0.022776   
    105. D(H  13,C   9,C   7,H  11)     -2.6706         0.027473   
    106. D(H  13,C   9,C   7,C   4)    177.0997         0.027473   
    107. D(O  16,H  13,C   9,C   7)   -128.6880         0.131036   
    108. D(H  17,H  13,C   9,C   5)     69.9135         0.131036   
    109. D(H  18,H  13,C   9,C   5)     36.6163         0.131036   
    110. D(O  16,H  13,C   9,C   5)     48.8097         0.131036   
    111. D(H  17,H  13,C   9,C   7)   -107.5842         0.131036   
    112. D(O  16,H  15,N   3,H  18)      9.7201         0.245677   
    113. D(O  16,H  15,N   3,H  14)    138.0052         0.245677   
    114. D(O  16,H  15,N   3,C   5)    -87.2006         0.245677   
    115. D(H  18,H  15,N   3,H  14)    128.2851         0.245677   
    116. D(H  18,H  15,N   3,C   5)    -96.9207         0.245677   
    117. D(H  13,O  16,H  15,H  18)    119.3685         0.001500   
    118. D(H  13,O  16,H  15,N   3)     88.2827         0.001500   
    119. D(H  18,O  16,H  15,N   3)    -31.0858         0.001500   
    120. D(H  17,O  16,H  15,H  18)     73.2370         0.001500   
    121. D(H  17,O  16,H  15,N   3)     42.1512         0.001500   
    122. D(H  15,O  16,H  13,H  17)   -142.3694         0.001501   
    123. D(H  15,O  16,H  13,C   9)    -72.5175         0.001501   
    124. D(H  18,O  16,H  13,H  17)   -104.7092         0.001501   
    125. D(H  18,O  16,H  13,C   9)    -34.8573         0.001501   
    126. D(H  17,O  16,H  13,H  18)    104.7092         0.001501   
    127. D(H  17,O  16,H  13,C   9)     69.8519         0.001501   
    128. D(H  13,H  17,O  16,H  15)     36.8606         0.358399   
    129. D(H  13,H  17,O  16,H  18)     79.9729         0.358399   
    130. D(O  16,H  17,H  13,H  18)    -39.6081         0.001501   
    131. D(O  16,H  17,H  13,C   9)   -117.8932         0.001501   
    132. D(H  15,H  18,N   3,H  14)   -107.7064         0.001536   
    133. D(H  15,H  18,N   3,C   5)    113.8587         0.001536   
    134. D(O  16,H  18,N   3,H  15)    -46.3699         0.001536   
    135. D(O  16,H  18,N   3,H  14)   -154.0763         0.001536   
    136. D(O  16,H  18,N   3,C   5)     67.4888         0.001536   
    137. D(H  13,H  18,O  16,H  17)    -78.5468         0.403429   
    138. D(H  15,H  18,O  16,H  17)   -124.7439         0.403429   
    139. D(N   3,H  18,O  16,H  15)     22.2499         0.403429   
    140. D(N   3,H  18,O  16,H  13)    -23.9472         0.403429   
    141. D(H  13,H  18,H  15,O  16)    -53.1648         0.001524   
    142. D(H  13,H  18,H  15,N   3)     94.6337         0.001524   
    143. D(N   3,H  18,H  15,O  16)   -147.7985         0.001524   
    144. D(O  16,H  18,H  15,N   3)    147.7985         0.001524   
    145. D(H  15,H  18,H  13,C   9)    -78.3322         0.001501   
    146. D(N   3,H  18,H  13,H  17)   -157.0602         0.001501   
    147. D(N   3,H  18,O  16,H  17)   -102.4940         0.403429   
    148. D(N   3,H  18,H  13,O  16)    163.2214         0.001501   
    149. D(N   3,H  18,H  13,C   9)    -48.0877         0.001501   
    150. D(O  16,H  18,H  13,H  17)     39.7184         0.001501   
    151. D(H  15,H  18,O  16,H  13)    -46.1971         0.403429   
    152. D(O  16,H  18,H  13,C   9)    148.6909         0.001501   
    153. D(H  13,H  18,N   3,C   5)     42.0892         0.001536   
    -----------------------------------------------------------------

Number of atoms                         .... 19
Number of degrees of freedom            .... 153


         *************************************************************
         *                GEOMETRY OPTIMIZATION CYCLE   1            *
         *************************************************************
---------------------------------
CARTESIAN COORDINATES (ANGSTROEM)
---------------------------------
  O      2.656496   -0.472256    1.346020
  O      2.725908   -0.326600   -0.813952
  N      2.155844   -0.210661    0.261414
  N     -3.155340    1.700367    0.212677
  C      0.772926    0.276737    0.249752
  C     -1.860493    1.193073    0.227333
  C      0.088168    0.419168    1.457763
  C      0.166310    0.592266   -0.969303
  C     -1.224050    0.876162    1.443810
  C     -1.143235    1.052033   -0.980903
  H      0.594643    0.163919    2.387945
  H      0.736786    0.474168   -1.890104
  H     -1.769806    0.986854    2.384531
  H     -1.622201    1.349218   -1.915279
  H     -3.688650    1.558953    1.070356
  H     -3.703097    1.483398   -0.615983
  O     -2.732408    3.672053   -1.910305
  H     -1.804342    3.941830   -1.874923
  H     -2.928986    3.435569   -0.988363

----------------------------
CARTESIAN COORDINATES (A.U.)
----------------------------
  NO LB      ZA    FRAG     MASS         X           Y           Z
   0 O     8.0000    0    15.999    5.020051   -0.892435    2.543609
   1 O     8.0000    0    15.999    5.151220   -0.617184   -1.538147
   2 N     7.0000    0    14.007    4.073955   -0.398092    0.494001
   3 N     7.0000    0    14.007   -5.962729    3.213228    0.401901
   4 C     6.0000    0    12.011    1.460618    0.522958    0.471963
   5 C     6.0000    0    12.011   -3.515823    2.254581    0.429596
   6 C     6.0000    0    12.011    0.166614    0.792113    2.754773
   7 C     6.0000    0    12.011    0.314280    1.119220   -1.831717
   8 C     6.0000    0    12.011   -2.313119    1.655706    2.728406
   9 C     6.0000    0    12.011   -2.160401    1.988054   -1.853639
  10 H     1.0000    0     1.008    1.123713    0.309763    4.512562
  11 H     1.0000    0     1.008    1.392323    0.896047   -3.571779
  12 H     1.0000    0     1.008   -3.344449    1.864883    4.506111
  13 H     1.0000    0     1.008   -3.065516    2.549653   -3.619353
  14 H     1.0000    0     1.008   -6.970539    2.945995    2.022680
  15 H     1.0000    0     1.008   -6.997840    2.803216   -1.164039
  16 O     8.0000    0    15.999   -5.163503    6.939175   -3.609953
  17 H     1.0000    0     1.008   -3.409711    7.448980   -3.543091
  18 H     1.0000    0     1.008   -5.534981    6.492284   -1.867736

--------------------------------
INTERNAL COORDINATES (ANGSTROEM)
--------------------------------
 O      0   0   0     0.000000000000     0.00000000     0.00000000
 O      1   0   0     2.165990125102     0.00000000     0.00000000
 N      2   1   0     1.222631247386    27.66565859     0.00000000
 N      3   2   1     5.644739866062   117.59491914   179.58971835
 C      3   2   1     1.466341262575   117.66219364   180.00811853
 C      4   3   2     1.390751914127     1.60850741    98.33762309
 C      5   3   2     1.395876441527   119.31967914   179.84854870
 C      5   3   2     1.397724984543   119.42495035   359.72408087
 C      7   5   3     1.389587847317   119.21651627   180.25428662
 C      8   5   3     1.387958374490   119.44261588   179.91892710
 H      7   5   3     1.089452484079   119.13933853   359.92658053
 H      8   5   3     1.089616542580   119.03555856   359.69497521
 H      9   7   5     1.093187307609   119.74213234   179.74010045
 H     10   8   5     1.091231104538   120.76352471   177.09967591
 H      4   3   2     1.019818884943   115.96598219   164.43929161
 H      4   3   2     1.016754964557   116.21167015    29.72549167
 O     14  10   8     2.574518586724   115.67955797   231.31201798
 H     17  14  10     0.967129218927    80.67329388    69.85189973
 H     17  14  10     0.971876651420    82.50244310   325.14272792

---------------------------
INTERNAL COORDINATES (A.U.)
---------------------------
 O      0   0   0     0.000000000000     0.00000000     0.00000000
 O      1   0   0     4.093128145220     0.00000000     0.00000000
 N      2   1   0     2.310438220334    27.66565859     0.00000000
 N      3   2   1    10.667012444085   117.59491914   179.58971835
 C      3   2   1     2.770983405135   117.66219364   180.00811853
 C      4   3   2     2.628140237927     1.60850741    98.33762309
 C      5   3   2     2.637824191279   119.31967914   179.84854870
 C      5   3   2     2.641317431325   119.42495035   359.72408087
 C      7   5   3     2.625940470455   119.21651627   180.25428662
 C      8   5   3     2.622861213068   119.44261588   179.91892710
 H      7   5   3     2.058766830830   119.13933853   359.92658053
 H      8   5   3     2.059076856466   119.03555856   359.69497521
 H      9   7   5     2.065824624459   119.74213234   179.74010045
 H     10   8   5     2.062127936394   120.76352471   177.09967591
 H      4   3   2     1.927178398743   115.96598219   164.43929161
 H      4   3   2     1.921388428318   116.21167015    29.72549167
 O     14  10   8     4.865135055598   115.67955797   231.31201798
 H     17  14  10     1.827609359885    80.67329388    69.85189973
 H     17  14  10     1.836580707136    82.50244310   325.14272792

---------------------
BASIS SET INFORMATION
---------------------
There are 4 groups of distinct atoms

 Group   1 Type O   : 7s4p1d contracted to 3s2p1d pattern {511/31/1}
 Group   2 Type N   : 7s4p1d contracted to 3s2p1d pattern {511/31/1}
 Group   3 Type C   : 7s4p1d contracted to 3s2p1d pattern {511/31/1}
 Group   4 Type H   : 4s1p contracted to 2s1p pattern {31/1}

Atom   0O    basis set group =>   1
Atom   1O    basis set group =>   1
Atom   2N    basis set group =>   2
Atom   3N    basis set group =>   2
Atom   4C    basis set group =>   3
Atom   5C    basis set group =>   3
Atom   6C    basis set group =>   3
Atom   7C    basis set group =>   3
Atom   8C    basis set group =>   3
Atom   9C    basis set group =>   3
Atom  10H    basis set group =>   4
Atom  11H    basis set group =>   4
Atom  12H    basis set group =>   4
Atom  13H    basis set group =>   4
Atom  14H    basis set group =>   4
Atom  15H    basis set group =>   4
Atom  16O    basis set group =>   1
Atom  17H    basis set group =>   4
Atom  18H    basis set group =>   4
---------------------------------
AUXILIARY/J BASIS SET INFORMATION
---------------------------------
There are 4 groups of distinct atoms

 Group   1 Type O   : 12s5p4d2f1g contracted to 6s4p3d1f1g pattern {711111/2111/211/2/1}
 Group   2 Type N   : 12s5p4d2f1g contracted to 6s4p3d1f1g pattern {711111/2111/211/2/1}
 Group   3 Type C   : 12s5p4d2f1g contracted to 6s4p3d1f1g pattern {711111/2111/211/2/1}
 Group   4 Type H   : 5s2p1d contracted to 3s1p1d pattern {311/2/1}

Atom   0O    basis set group =>   1
Atom   1O    basis set group =>   1
Atom   2N    basis set group =>   2
Atom   3N    basis set group =>   2
Atom   4C    basis set group =>   3
Atom   5C    basis set group =>   3
Atom   6C    basis set group =>   3
Atom   7C    basis set group =>   3
Atom   8C    basis set group =>   3
Atom   9C    basis set group =>   3
Atom  10H    basis set group =>   4
Atom  11H    basis set group =>   4
Atom  12H    basis set group =>   4
Atom  13H    basis set group =>   4
Atom  14H    basis set group =>   4
Atom  15H    basis set group =>   4
Atom  16O    basis set group =>   1
Atom  17H    basis set group =>   4
Atom  18H    basis set group =>   4
--------------------------------------------------------------------------
By default, for Open MPI 4.0 and later, infiniband ports on a device
are not used by default.  The intent is to use UCX for these devices.
You can override this policy by setting the btl_openib_allow_ib MCA parameter
to true.

  Local host:              psid00
  Local adapter:           mlx5_0
  Local port:              1

--------------------------------------------------------------------------
--------------------------------------------------------------------------
WARNING: There was an error initializing an OpenFabrics device.

  Local host:   psid00
  Local device: mlx5_0
--------------------------------------------------------------------------


           ************************************************************
           *        Program running with 40 parallel MPI-processes    *
           *              working on a common directory               *
           ************************************************************
------------------------------------------------------------------------------
                             ORCA STARTUP CALCULATIONS
                           -- RI-GTO INTEGRALS CHOSEN --
------------------------------------------------------------------------------
------------------------------------------------------------------------------
                   ___                                                        
                  /   \      - P O W E R E D   B Y -                         
                 /     \                                                     
                 |  |  |   _    _      __       _____    __    __             
                 |  |  |  | |  | |    /  \     |  _  \  |  |  /  |          
                  \  \/   | |  | |   /    \    | | | |  |  | /  /          
                 / \  \   | |__| |  /  /\  \   | |_| |  |  |/  /          
                |  |  |   |  __  | /  /__\  \  |    /   |      \           
                |  |  |   | |  | | |   __   |  |    \   |  |\   \          
                \     /   | |  | | |  |  |  |  | |\  \  |  | \   \       
                 \___/    |_|  |_| |__|  |__|  |_| \__\ |__|  \__/        
                                                                              
                      - O R C A' S   B I G   F R I E N D -                    
                                      &                                       
                       - I N T E G R A L  F E E D E R -                       
                                                                              
 v1 FN, 2020, v2 2021, v3 2022-2024                                           
------------------------------------------------------------------------------


----------------------
SHARK INTEGRAL PACKAGE
----------------------

Number of atoms                             ...     19
Number of basis functions                   ...    194
Number of shells                            ...     90
Maximum angular momentum                    ...      2
Integral batch strategy                     ... SHARK/LIBINT Hybrid
RI-J (if used) integral strategy            ... SPLIT-RIJ (Revised 2003 algorithm where possible)
Printlevel                                  ...      1
Contraction scheme used                     ... SEGMENTED contraction
Prescreening option                         ... SCHWARTZ
   Thresh                                   ... 2.500e-11
   Tcut                                     ... 2.500e-12
   Tpresel                                  ... 2.500e-12 
Coulomb Range Separation                    ... NOT USED
Exchange Range Separation                   ... NOT USED
Multipole approximations                    ... NOT USED
Finite Nucleus Model                        ... NOT USED
CABS basis                                  ... NOT available
Auxiliary Coulomb fitting basis             ... AVAILABLE
   # of basis functions in Aux-J            ...    627
   # of shells in Aux-J                     ...    205
   Maximum angular momentum in Aux-J        ...      4
Auxiliary J/K fitting basis                 ... NOT available
Auxiliary Correlation fitting basis         ... NOT available
Auxiliary 'external' fitting basis          ... NOT available

Checking pre-screening integrals            ... done (  0.0 sec) Dimension = 90
Check shell pair data                       ... done (  0.0 sec)
Shell pair information
Shell pair cut-off parameter TPreSel        ...   2.5e-12
Total number of shell pairs                 ...      4095
Shell pairs after pre-screening             ...      3534
Total number of primitive shell pairs       ...     15045
Primitive shell pairs kept                  ...      9056
          la=0 lb=0:   1066 shell pairs
          la=1 lb=0:   1286 shell pairs
          la=1 lb=1:    409 shell pairs
          la=2 lb=0:    445 shell pairs
          la=2 lb=1:    275 shell pairs
          la=2 lb=2:     53 shell pairs

Calculating one electron integrals          ... done (  0.0 sec)
Calculating RI/J V-Matrix + Cholesky decomp.... done (  0.0 sec)
Calculating Nuclear repulsion               ... done (  0.0 sec) ENN=    588.706910457422 Eh

Diagonalization of the overlap matrix:
Smallest eigenvalue                        ... 2.547e-04
Time for diagonalization                   ...    0.004 sec
Threshold for overlap eigenvalues          ... 1.000e-07
Number of eigenvalues below threshold      ... 0
Time for construction of square roots      ...    0.002 sec
Total time needed                          ...    0.012 sec

-------------------
DFT GRID GENERATION
-------------------

General Integration Accuracy     IntAcc      ... 4.388
Radial Grid Type                 RadialGrid  ... OptM3 with GC (2021)
Angular Grid (max. ang.)         AngularGrid ... 4 (Lebedev-302)
Angular grid pruning method      GridPruning ... 4 (adaptive)
Weight generation scheme         WeightScheme... mBecke (2022)
Basis function cutoff            BFCut       ... 1.0000e-11
Integration weight cutoff        WCut        ... 1.0000e-14
Partially contracted basis set               ... off
Rotationally invariant grid construction     ... off
Angular grids for H and He will be reduced by one unit

Total number of grid points                  ...    92132
Total number of batches                      ...     1450
Average number of points per batch           ...       63
Average number of grid points per atom       ...     4849

--------------------
COSX GRID GENERATION
--------------------

GRIDX 1
-------
General Integration Accuracy     IntAcc      ... 3.816
Radial Grid Type                 RadialGrid  ... OptM3 with GC (2021)
Angular Grid (max. ang.)         AngularGrid ... 1 (Lebedev-50)
Angular grid pruning method      GridPruning ... 4 (adaptive)
Weight generation scheme         WeightScheme... mBecke (2022)
Basis function cutoff            BFCut       ... 1.0000e-11
Integration weight cutoff        WCut        ... 1.0000e-14
Partially contracted basis set               ... on
Rotationally invariant grid construction     ... off
Angular grids for H and He will be reduced by one unit

Total number of grid points                  ...    11736
Total number of batches                      ...      103
Average number of points per batch           ...      113
Average number of grid points per atom       ...      618
UseSFitting                                  ... on

GRIDX 2
-------
General Integration Accuracy     IntAcc      ... 4.020
Radial Grid Type                 RadialGrid  ... OptM3 with GC (2021)
Angular Grid (max. ang.)         AngularGrid ... 2 (Lebedev-110)
Angular grid pruning method      GridPruning ... 4 (adaptive)
Weight generation scheme         WeightScheme... mBecke (2022)
Basis function cutoff            BFCut       ... 1.0000e-11
Integration weight cutoff        WCut        ... 1.0000e-14
Partially contracted basis set               ... on
Rotationally invariant grid construction     ... off
Angular grids for H and He will be reduced by one unit

Total number of grid points                  ...    25929
Total number of batches                      ...      210
Average number of points per batch           ...      123
Average number of grid points per atom       ...     1365
UseSFitting                                  ... on

GRIDX 3
-------
General Integration Accuracy     IntAcc      ... 4.338
Radial Grid Type                 RadialGrid  ... OptM3 with GC (2021)
Angular Grid (max. ang.)         AngularGrid ... 3 (Lebedev-194)
Angular grid pruning method      GridPruning ... 4 (adaptive)
Weight generation scheme         WeightScheme... mBecke (2022)
Basis function cutoff            BFCut       ... 1.0000e-11
Integration weight cutoff        WCut        ... 1.0000e-14
Partially contracted basis set               ... on
Rotationally invariant grid construction     ... off
Angular grids for H and He will be reduced by one unit

[psid00:176145] 39 more processes have sent help message help-mpi-btl-openib.txt / ib port not selected
[psid00:176145] Set MCA parameter "orte_base_help_aggregate" to 0 to see all help / error messages
[psid00:176145] 39 more processes have sent help message help-mpi-btl-openib.txt / error in device init
Total number of grid points                  ...    56919
Total number of batches                      ...      453
Average number of points per batch           ...      125
Average number of grid points per atom       ...     2996
UseSFitting                                  ... on
Initializing property integral containers    ... done (  0.0 sec)

SHARK setup successfully completed in   5.0 seconds

Maximum memory used throughout the entire STARTUP-calculation: 23.5 MB
--------------------------------------------------------------------------
By default, for Open MPI 4.0 and later, infiniband ports on a device
are not used by default.  The intent is to use UCX for these devices.
You can override this policy by setting the btl_openib_allow_ib MCA parameter
to true.

  Local host:              psid00
  Local adapter:           mlx5_0
  Local port:              1

--------------------------------------------------------------------------
--------------------------------------------------------------------------
WARNING: There was an error initializing an OpenFabrics device.

  Local host:   psid00
  Local device: mlx5_0
--------------------------------------------------------------------------


           ************************************************************
           *        Program running with 40 parallel MPI-processes    *
           *              working on a common directory               *
           ************************************************************
-------------------------------------------------------------------------------
                                 ORCA GUESS
                   Start orbitals & Density for SCF / CASSCF
-------------------------------------------------------------------------------

------------
SCF SETTINGS
------------
Hamiltonian:
 Density Functional     Method          .... DFT(GTOs)
 Exchange Functional    Exchange        .... B88
   X-Alpha parameter    XAlpha          ....  0.666667
   Becke's b parameter  XBeta           ....  0.004200
 Correlation Functional Correlation     .... LYP
 LDA part of GGA corr.  LDAOpt          .... VWN-5
 Gradients option       PostSCFGGA      .... off
 Hybrid DFT is turned on
   Fraction HF Exchange ScalHFX         ....  0.200000
   Scaling of DF-GGA-X  ScalDFX         ....  0.720000
   Scaling of DF-GGA-C  ScalDFC         ....  0.810000
   Scaling of DF-LDA-C  ScalLDAC        ....  1.000000
   Perturbative correction              ....  0.000000
   NL short-range parameter             ....  4.800000
 RI-approximation to the Coulomb term is turned on
   Number of AuxJ basis functions       .... 627
   RIJ-COSX (HFX calculated with COS-X)).... on


General Settings:
 Integral files         IntName         .... 4nitroaniline_water_2_OPT
 Hartree-Fock type      HFTyp           .... RHF
 Total Charge           Charge          ....    0
 Multiplicity           Mult            ....    1
 Number of Electrons    NEL             ....   82
 Basis Dimension        Dim             ....  194
 Nuclear Repulsion      ENuc            ....    588.7069104574 Eh

Convergence Acceleration:
 AO-DIIS                CNVDIIS         .... on
   Start iteration      DIISMaxIt       ....    12
   Startup error        DIISStart       ....  0.200000
   # of expansion vecs  DIISMaxEq       ....     5
   Bias factor          DIISBfac        ....   1.050
   Max. coefficient     DIISMaxC        ....  10.000
 MO-DIIS                CNVKDIIS        .... off
 Trust-Rad. Augm. Hess. CNVTRAH         .... auto
   Auto Start mean grad. ratio tolernc. ....  1.125000
   Auto Start start iteration           ....    50
   Auto Start num. interpolation iter.  ....    10
   Max. Number of Micro iterations      ....    24
   Max. Number of Macro iterations      .... Maxiter - #DIIS iter
   Number of Davidson start vectors     ....     2
   Converg. threshold    (grad. norm)   ....   1.000e-05
   Grad. Scal. Fac. for Micro threshold ....   0.100
   Minimum threshold for Micro iter.    ....   1.000e-02
   NR start threshold (gradient norm)   ....   1.000e-04
   Initial trust radius                 ....   0.400
   Minimum AH scaling param. (alpha)    ....   1.000
   Maximum AH scaling param. (alpha)    .... 1000.000
   Quad. conv. algorithm                .... NR
   White noise on init. David. guess    .... on
   Maximum white noise                  ....   0.010
   Pseudo random numbers                .... off
   Inactive MOs                         .... canonical
   Orbital update algorithm             .... Taylor
   Preconditioner                       .... Diag
   Full preconditioner red. dimension   ....   250
 SOSCF                  CNVSOSCF        .... on
   Start iteration      SOSCFMaxIt      ....   150
   Startup grad/error   SOSCFStart      ....  0.003300
   Hessian update       SOSCFHessUp     .... L-BFGS
 Level Shifting         CNVShift        .... on
   Level shift para.    LevelShift      ....    0.2500
   Turn off err/grad.   ShiftErr        ....    0.0010
 Zerner damping         CNVZerner       .... off
 Static damping         CNVDamp         .... on
   Fraction old density DampFac         ....    0.7000
   Max. Damping (<1)    DampMax         ....    0.9800
   Min. Damping (>=0)   DampMin         ....    0.0000
   Turn off err/grad.   DampErr         ....    0.1000

SCF Procedure:
 Maximum # iterations   MaxIter         ....   125
 SCF integral mode      SCFMode         .... Direct
   Integral package                     .... SHARK and LIBINT hybrid scheme
 Reset frequency        DirectResetFreq ....    20
 Integral Threshold     Thresh          ....  2.500e-11 Eh
 Primitive CutOff       TCut            ....  2.500e-12 Eh

Convergence Tolerance:
 Convergence Check Mode ConvCheckMode   .... Total+1el-Energy
 Convergence forced     ConvForced      .... 0
 Energy Change          TolE            ....  1.000e-08 Eh
 1-El. energy change                    ....  1.000e-05 Eh
 Orbital Gradient       TolG            ....  1.000e-05
 Orbital Rotation angle TolX            ....  1.000e-05
 DIIS Error             TolErr          ....  5.000e-07

------------------------------
INITIAL GUESS: MODEL POTENTIAL
------------------------------
Loading Hartree-Fock densities                     ... done
Calculating cut-offs                               ... done
Initializing the effective Hamiltonian             ... done
Setting up the integral package (SHARK)            ... done
Starting the Coulomb interaction                   ... done (   0.0 sec)
Making the grid                                    ... done (   0.5 sec)
Mapping shells                                     ... done
Starting the XC term evaluation                    ... done (   0.1 sec)
  promolecular density results
     # of electrons  =     82.003982914
     EX              =    -70.960637073
     EC              =     -2.834525354
     EX+EC           =    -73.795162427
Transforming the Hamiltonian                       ... done (   0.0 sec)
Diagonalizing the Hamiltonian                      ... done (   0.0 sec)
Back transforming the eigenvectors                 ... done (   0.0 sec)
Now organizing SCF variables                       ... done
                      ------------------
                      INITIAL GUESS DONE (   0.7 sec)
                      ------------------
             **** ENERGY FILE WAS UPDATED (4nitroaniline_water_2_OPT.en.tmp) ****
Finished Guess after   2.5 sec
Maximum memory used throughout the entire GUESS-calculation: 13.5 MB
[psid00:176282] 39 more processes have sent help message help-mpi-btl-openib.txt / ib port not selected
[psid00:176282] Set MCA parameter "orte_base_help_aggregate" to 0 to see all help / error messages
[psid00:176282] 39 more processes have sent help message help-mpi-btl-openib.txt / error in device init
--------------------------------------------------------------------------
By default, for Open MPI 4.0 and later, infiniband ports on a device
are not used by default.  The intent is to use UCX for these devices.
You can override this policy by setting the btl_openib_allow_ib MCA parameter
to true.

  Local host:              psid00
  Local adapter:           mlx5_0
  Local port:              1

--------------------------------------------------------------------------
--------------------------------------------------------------------------
WARNING: There was an error initializing an OpenFabrics device.

  Local host:   psid00
  Local device: mlx5_0
--------------------------------------------------------------------------


           ************************************************************
           *        Program running with 40 parallel MPI-processes    *
           *              working on a common directory               *
           ************************************************************

-------------------------------------------------------------------------------------------
                                      ORCA LEAN-SCF
                              memory conserving SCF solver
-------------------------------------------------------------------------------------------

----------------------------------------D-I-I-S--------------------------------------------
Iteration    Energy (Eh)           Delta-E    RMSDP     MaxDP     DIISErr   Damp  Time(sec)
-------------------------------------------------------------------------------------------
               ***  Starting incremental Fock matrix formation  ***
    1    -567.4505804486017269     0.00e+00  4.02e-03  8.81e-02  3.00e-01  0.700   0.3
    2    -567.6278152743431065    -1.77e-01  2.50e-03  4.77e-02  1.26e-01  0.700   0.2
                               ***Turning on AO-DIIS***
    3    -567.6894578807781500    -6.16e-02  1.06e-03  1.68e-02  3.55e-02  0.700   0.2
    4    -567.7289252423278185    -3.95e-02  1.84e-03  2.91e-02  1.64e-02  0.000   0.2
    5    -567.8176990153480119    -8.88e-02  3.48e-04  7.74e-03  5.77e-03  0.000   0.2
                              *** Initializing SOSCF ***
---------------------------------------S-O-S-C-F--------------------------------------
Iteration    Energy (Eh)           Delta-E    RMSDP     MaxDP     MaxGrad    Time(sec)
--------------------------------------------------------------------------------------
    6    -567.8181629075819501    -4.64e-04  1.22e-04  3.44e-03  1.59e-03     0.2
               *** Restarting incremental Fock matrix formation ***
    7    -567.8182048234178865    -4.19e-05  7.86e-05  1.76e-03  3.61e-04     0.3
    8    -567.8182041671135494     6.56e-07  3.35e-05  7.44e-04  4.87e-04     0.2
    9    -567.8182098025960158    -5.64e-06  1.58e-05  2.47e-04  9.10e-05     0.2
   10    -567.8182097247168940     7.79e-08  7.87e-06  2.00e-04  1.06e-04     0.2
   11    -567.8182100485315686    -3.24e-07  5.17e-06  1.34e-04  3.80e-05     0.2
   12    -567.8182100182278873     3.03e-08  3.45e-06  1.12e-04  8.14e-05     0.5
   13    -567.8182100689697336    -5.07e-08  2.63e-06  8.43e-05  2.43e-05     0.9
   14    -567.8182100453092289     2.37e-08  1.77e-06  5.53e-05  3.15e-05     0.3
   15    -567.8182100761811171    -3.09e-08  5.21e-07  1.04e-05  3.50e-06     0.2
   16    -567.8182100751552071     1.03e-09  3.10e-07  6.40e-06  5.03e-06     0.2
                 **** Energy Check signals convergence ****

               *****************************************************
               *                     SUCCESS                       *
               *           SCF CONVERGED AFTER  16 CYCLES          *
               *****************************************************

Recomputing exchange energy using gridx3       ...[psid00:176412] 39 more processes have sent help message help-mpi-btl-openib.txt / ib port not selected
[psid00:176412] Set MCA parameter "orte_base_help_aggregate" to 0 to see all help / error messages
[psid00:176412] 39 more processes have sent help message help-mpi-btl-openib.txt / error in device init
 done (    0.265 sec)
Old exchange energy                            :    -14.331712054 Eh
New exchange energy                            :    -14.331667938 Eh
Exchange energy change after final integration :      0.000044116 Eh
Total energy after final integration           :   -567.818165959 Eh
             **** ENERGY FILE WAS UPDATED (4nitroaniline_water_2_OPT.en.tmp) ****

----------------
TOTAL SCF ENERGY
----------------

Total Energy       :       -567.81816595875296 Eh          -15451.11782 eV

Components:
Nuclear Repulsion  :        588.70691045742171 Eh           16019.52945 eV
Electronic Energy  :      -1156.52512053257692 Eh          -31470.64847 eV
One Electron Energy:      -1940.92935020658160 Eh          -52815.37270 eV
Two Electron Energy:        784.40422967400468 Eh           21344.72423 eV

Virial components:
Potential Energy   :      -1130.94445633536134 Eh          -30774.56321 eV
Kinetic Energy     :        563.12629037660827 Eh           15323.44539 eV
Virial Ratio       :          2.00833183543785

DFT components:
N(Alpha)           :       40.999978590249 electrons
N(Beta)            :       40.999978590249 electrons
N(Total)           :       81.999957180499 electrons
E(X)               :      -57.069068741360 Eh       
E(C)               :       -3.340331478899 Eh       
E(XC)              :      -60.409400220259 Eh       

---------------
SCF CONVERGENCE
---------------

  Last Energy change         ...   -1.0259e-09  Tolerance :   1.0000e-08
  Last MAX-Density change    ...    6.3978e-06  Tolerance :   1.0000e-07
  Last RMS-Density change    ...    3.0983e-07  Tolerance :   5.0000e-09
  Last DIIS Error            ...    1.5896e-03  Tolerance :   5.0000e-07
  Last Orbital Gradient      ...    5.0309e-06  Tolerance :   1.0000e-05
  Last Orbital Rotation      ...    2.9184e-06  Tolerance :   1.0000e-05


----------------
ORBITAL ENERGIES
----------------

  NO   OCC          E(Eh)            E(eV) 
   0   2.0000     -19.150760      -521.1187 
   1   2.0000     -19.150671      -521.1162 
   2   2.0000     -19.122146      -520.3400 
   3   2.0000     -14.549180      -395.9033 
   4   2.0000     -14.371961      -391.0809 
   5   2.0000     -10.260931      -279.2141 
   6   2.0000     -10.238265      -278.5974 
   7   2.0000     -10.218571      -278.0614 
   8   2.0000     -10.217223      -278.0248 
   9   2.0000     -10.213017      -277.9103 
  10   2.0000     -10.208198      -277.7792 
  11   2.0000      -1.211192       -32.9582 
  12   2.0000      -1.036783       -28.2123 
  13   2.0000      -0.981425       -26.7059 
  14   2.0000      -0.944240       -25.6941 
  15   2.0000      -0.871776       -23.7222 
  16   2.0000      -0.785441       -21.3729 
  17   2.0000      -0.766982       -20.8706 
  18   2.0000      -0.684623       -18.6295 
  19   2.0000      -0.639941       -17.4137 
  20   2.0000      -0.592280       -16.1168 
  21   2.0000      -0.556161       -15.1339 
  22   2.0000      -0.545642       -14.8477 
  23   2.0000      -0.531138       -14.4530 
  24   2.0000      -0.530535       -14.4366 
  25   2.0000      -0.511962       -13.9312 
  26   2.0000      -0.496472       -13.5097 
  27   2.0000      -0.464032       -12.6270 
  28   2.0000      -0.459092       -12.4925 
  29   2.0000      -0.447428       -12.1751 
  30   2.0000      -0.427075       -11.6213 
  31   2.0000      -0.413682       -11.2569 
  32   2.0000      -0.373113       -10.1529 
  33   2.0000      -0.371202       -10.1009 
  34   2.0000      -0.344775        -9.3818 
  35   2.0000      -0.303409        -8.2562 
  36   2.0000      -0.301779        -8.2118 
  37   2.0000      -0.296120        -8.0578 
  38   2.0000      -0.284103        -7.7308 
  39   2.0000      -0.280997        -7.6463 
  40   2.0000      -0.244640        -6.6570 
  41   0.0000      -0.079347        -2.1592 
  42   0.0000      -0.033244        -0.9046 
  43   0.0000       0.006123         0.1666 
  44   0.0000       0.031301         0.8517 
  45   0.0000       0.061084         1.6622 
  46   0.0000       0.066111         1.7990 
  47   0.0000       0.085655         2.3308 
  48   0.0000       0.115529         3.1437 
  49   0.0000       0.131760         3.5854 
  50   0.0000       0.141270         3.8442 
  51   0.0000       0.158862         4.3229 
*Only the first 10 virtual orbitals were printed.

                    ********************************
                    * MULLIKEN POPULATION ANALYSIS *
                    ********************************

-----------------------
MULLIKEN ATOMIC CHARGES
-----------------------
   0 O :   -0.251291
   1 O :   -0.250103
   2 N :    0.234507
   3 N :   -0.095820
   4 C :    0.172317
   5 C :    0.075122
   6 C :   -0.021237
   7 C :   -0.018978
   8 C :   -0.018872
   9 C :   -0.045526
  10 H :    0.006682
  11 H :    0.007240
  12 H :   -0.027931
  13 H :   -0.019172
  14 H :    0.117899
  15 H :    0.138659
  16 O :   -0.298284
  17 H :    0.156281
  18 H :    0.138507
Sum of atomic charges:    0.0000000

--------------------------------
MULLIKEN REDUCED ORBITAL CHARGES
--------------------------------
  0 O s       :     3.857172  s :     3.857172
      pz      :     1.256958  p :     4.372061
      px      :     1.671325
      py      :     1.443778
      dz2     :     0.007177  d :     0.022057
      dxz     :     0.006444
      dyz     :     0.005587
      dx2y2   :     0.001418
      dxy     :     0.001430

  1 O s       :     3.857322  s :     3.857322
      pz      :     1.266431  p :     4.370698
      px      :     1.635042
      py      :     1.469225
      dz2     :     0.006990  d :     0.022083
      dxz     :     0.007094
      dyz     :     0.004985
      dx2y2   :     0.001447
      dxy     :     0.001567

  2 N s       :     3.294106  s :     3.294106
      pz      :     1.036211  p :     3.355830
      px      :     1.144035
      py      :     1.175584
      dz2     :     0.038196  d :     0.115557
      dxz     :     0.032566
      dyz     :     0.027702
      dx2y2   :     0.008752
      dxy     :     0.008341

  3 N s       :     3.332964  s :     3.332964
      pz      :     1.041677  p :     3.745476
      px      :     1.061814
      py      :     1.641985
      dz2     :     0.002724  d :     0.017379
      dxz     :     0.006144
      dyz     :     0.001744
      dx2y2   :     0.002537
      dxy     :     0.004230

  4 C s       :     2.999002  s :     2.999002
      pz      :     0.864469  p :     2.780805
      px      :     0.843925
      py      :     1.072411
      dz2     :     0.014251  d :     0.047876
      dxz     :     0.011235
      dyz     :     0.007472
      dx2y2   :     0.008046
      dxy     :     0.006872

  5 C s       :     2.975701  s :     2.975701
      pz      :     1.044036  p :     2.888323
      px      :     0.922703
      py      :     0.921584
      dz2     :     0.013311  d :     0.060854
      dxz     :     0.014775
      dyz     :     0.007473
      dx2y2   :     0.012406
      dxy     :     0.012889

  6 C s       :     3.279427  s :     3.279427
      pz      :     0.900394  p :     2.706674
      px      :     0.886999
      py      :     0.919280
      dz2     :     0.007514  d :     0.035136
      dxz     :     0.011409
      dyz     :     0.004875
      dx2y2   :     0.005301
      dxy     :     0.006037

  7 C s       :     3.282043  s :     3.282043
      pz      :     0.899126  p :     2.701812
      px      :     0.872978
      py      :     0.929708
      dz2     :     0.007500  d :     0.035123
      dxz     :     0.011635
      dyz     :     0.004834
      dx2y2   :     0.005520
      dxy     :     0.005634

  8 C s       :     3.229196  s :     3.229196
      pz      :     0.835499  p :     2.757116
      px      :     0.883280
      py      :     1.038337
      dz2     :     0.007538  d :     0.032561
      dxz     :     0.011496
      dyz     :     0.003982
      dx2y2   :     0.004857
      dxy     :     0.004688

  9 C s       :     3.256912  s :     3.256912
      pz      :     0.855942  p :     2.756329
      px      :     0.882144
      py      :     1.018243
      dz2     :     0.007337  d :     0.032285
      dxz     :     0.011221
      dyz     :     0.004145
      dx2y2   :     0.004714
      dxy     :     0.004868

 10 H s       :     0.969634  s :     0.969634
      pz      :     0.011994  p :     0.023684
      px      :     0.006841
      py      :     0.004848

 11 H s       :     0.969160  s :     0.969160
      pz      :     0.011835  p :     0.023600
      px      :     0.007537
      py      :     0.004228

 12 H s       :     1.004891  s :     1.004891
      pz      :     0.011928  p :     0.023040
      px      :     0.006094
      py      :     0.005018

 13 H s       :     0.995360  s :     0.995360
      pz      :     0.012118  p :     0.023812
      px      :     0.005672
      py      :     0.006022

 14 H s       :     0.837658  s :     0.837658
      pz      :     0.020026  p :     0.044443
      px      :     0.012048
      py      :     0.012369

 15 H s       :     0.816452  s :     0.816452
      pz      :     0.020009  p :     0.044889
      px      :     0.012244
      py      :     0.012636

 16 O s       :     3.683324  s :     3.683324
      pz      :     1.417516  p :     4.604499
      px      :     1.344145
      py      :     1.842838
      dz2     :     0.005159  d :     0.010462
      dxz     :     0.000834
      dyz     :     0.001133
      dx2y2   :     0.002361
      dxy     :     0.000976

 17 H s       :     0.773290  s :     0.773290
      pz      :     0.016337  p :     0.070430
      px      :     0.033470
      py      :     0.020623

 18 H s       :     0.789222  s :     0.789222
      pz      :     0.033990  p :     0.072271
      px      :     0.017011
      py      :     0.021270



                     *******************************
                     * LOEWDIN POPULATION ANALYSIS *
                     *******************************

----------------------
LOEWDIN ATOMIC CHARGES
----------------------
   0 O :   -0.216408
   1 O :   -0.215194
   2 N :    0.276432
   3 N :   -0.014431
   4 C :   -0.050926
   5 C :    0.033975
   6 C :    0.008490
   7 C :    0.007358
   8 C :   -0.056307
   9 C :   -0.055560
  10 H :    0.041854
  11 H :    0.042003
  12 H :    0.028279
  13 H :    0.027220
  14 H :    0.079235
  15 H :    0.083358
  16 O :   -0.146379
  17 H :    0.076848
  18 H :    0.050153

-------------------------------
LOEWDIN REDUCED ORBITAL CHARGES
-------------------------------
  0 O s       :     3.620283  s :     3.620283
      pz      :     1.393668  p :     4.553764
      px      :     1.700356
      py      :     1.459740
      dz2     :     0.015120  d :     0.042361
      dxz     :     0.013902
      dyz     :     0.009101
      dx2y2   :     0.002036
      dxy     :     0.002202

  1 O s       :     3.620171  s :     3.620171
      pz      :     1.400856  p :     4.552615
      px      :     1.673355
      py      :     1.478404
      dz2     :     0.014601  d :     0.042407
      dxz     :     0.015943
      dyz     :     0.007339
      dx2y2   :     0.002376
      dxy     :     0.002148

  2 N s       :     3.050310  s :     3.050310
      pz      :     1.123856  p :     3.430807
      px      :     1.173160
      py      :     1.133791
      dz2     :     0.088489  d :     0.242451
      dxz     :     0.071539
      dyz     :     0.050706
      dx2y2   :     0.016544
      dxy     :     0.015172

  3 N s       :     3.067929  s :     3.067929
      pz      :     1.152087  p :     3.903132
      px      :     1.143240
      py      :     1.607805
      dz2     :     0.008486  d :     0.043370
      dxz     :     0.017920
      dyz     :     0.002945
      dx2y2   :     0.005427
      dxy     :     0.008592

  4 C s       :     2.859817  s :     2.859817
      pz      :     1.093628  p :     3.069101
      px      :     0.916527
      py      :     1.058945
      dz2     :     0.038295  d :     0.122009
      dxz     :     0.032506
      dyz     :     0.016560
      dx2y2   :     0.019012
      dxy     :     0.015636

  5 C s       :     2.842371  s :     2.842371
      pz      :     1.098024  p :     2.980340
      px      :     0.956485
      py      :     0.925830
      dz2     :     0.035451  d :     0.143314
      dxz     :     0.037431
      dyz     :     0.016281
      dx2y2   :     0.025451
      dxy     :     0.028700

  6 C s       :     2.862762  s :     2.862762
      pz      :     1.050825  p :     3.037537
      px      :     1.046563
      py      :     0.940149
      dz2     :     0.021465  d :     0.091211
      dxz     :     0.031619
      dyz     :     0.010670
      dx2y2   :     0.013420
      dxy     :     0.014036

  7 C s       :     2.863088  s :     2.863088
      pz      :     1.049161  p :     3.038139
      px      :     1.049134
      py      :     0.939845
      dz2     :     0.021400  d :     0.091414
      dxz     :     0.032263
      dyz     :     0.010779
      dx2y2   :     0.013690
      dxy     :     0.013282

  8 C s       :     2.858153  s :     2.858153
      pz      :     1.025362  p :     3.111095
      px      :     1.050704
      py      :     1.035029
      dz2     :     0.021894  d :     0.087059
      dxz     :     0.032762
      dyz     :     0.008889
      dx2y2   :     0.012335
      dxy     :     0.011179

  9 C s       :     2.860751  s :     2.860751
      pz      :     1.034158  p :     3.108478
      px      :     1.048157
      py      :     1.026163
      dz2     :     0.021423  d :     0.086332
      dxz     :     0.032019
      dyz     :     0.009174
      dx2y2   :     0.012264
      dxy     :     0.011452

 10 H s       :     0.886589  s :     0.886589
      pz      :     0.035859  p :     0.071557
      px      :     0.020915
      py      :     0.014784

 11 H s       :     0.886506  s :     0.886506
      pz      :     0.035399  p :     0.071492
      px      :     0.022899
      py      :     0.013194

 12 H s       :     0.903738  s :     0.903738
      pz      :     0.034566  p :     0.067983
      px      :     0.017971
      py      :     0.015446

 13 H s       :     0.900854  s :     0.900854
      pz      :     0.036173  p :     0.071927
      px      :     0.017672
      py      :     0.018082

 14 H s       :     0.802235  s :     0.802235
      pz      :     0.050643  p :     0.118530
      px      :     0.029886
      py      :     0.038001

 15 H s       :     0.794880  s :     0.794880
      pz      :     0.050222  p :     0.121762
      px      :     0.030998
      py      :     0.040542

 16 O s       :     3.435763  s :     3.435763
      pz      :     1.483573  p :     4.691441
      px      :     1.411372
      py      :     1.796497
      dz2     :     0.010063  d :     0.019175
      dxz     :     0.000831
      dyz     :     0.001438
      dx2y2   :     0.005060
      dxy     :     0.001783

 17 H s       :     0.747063  s :     0.747063
      pz      :     0.035112  p :     0.176089
      px      :     0.086058
      py      :     0.054919

 18 H s       :     0.762609  s :     0.762609
      pz      :     0.097248  p :     0.187239
      px      :     0.034256
      py      :     0.055734



                      *****************************
                      * MAYER POPULATION ANALYSIS *
                      *****************************

  NA   - Mulliken gross atomic population
  ZA   - Total nuclear charge
  QA   - Mulliken gross atomic charge
  VA   - Mayer's total valence
  BVA  - Mayer's bonded valence
  FA   - Mayer's free valence

  ATOM       NA         ZA         QA         VA         BVA        FA
  0 O      8.2513     8.0000    -0.2513     1.9541     1.9541     0.0000
  1 O      8.2501     8.0000    -0.2501     1.9549     1.9549     0.0000
  2 N      6.7655     7.0000     0.2345     3.9832     3.9832    -0.0000
  3 N      7.0958     7.0000    -0.0958     3.2172     3.2172     0.0000
  4 C      5.8277     6.0000     0.1723     3.7554     3.7554    -0.0000
  5 C      5.9249     6.0000     0.0751     3.9813     3.9813     0.0000
  6 C      6.0212     6.0000    -0.0212     3.8523     3.8523    -0.0000
  7 C      6.0190     6.0000    -0.0190     3.8292     3.8292    -0.0000
  8 C      6.0189     6.0000    -0.0189     3.7686     3.7686     0.0000
  9 C      6.0455     6.0000    -0.0455     3.7891     3.7891     0.0000
 10 H      0.9933     1.0000     0.0067     1.0186     1.0186    -0.0000
 11 H      0.9928     1.0000     0.0072     1.0186     1.0186    -0.0000
 12 H      1.0279     1.0000    -0.0279     0.9891     0.9891    -0.0000
 13 H      1.0192     1.0000    -0.0192     1.0428     1.0428     0.0000
 14 H      0.8821     1.0000     0.1179     0.9991     0.9991     0.0000
 15 H      0.8613     1.0000     0.1387     0.9933     0.9933    -0.0000
 16 O      8.2983     8.0000    -0.2983     2.0707     2.0707    -0.0000
 17 H      0.8437     1.0000     0.1563     1.0135     1.0135     0.0000
 18 H      0.8615     1.0000     0.1385     1.0693     1.0693    -0.0000

  Mayer bond orders larger than 0.100000
B(  0-O ,  1-O ) :   0.2712 B(  0-O ,  2-N ) :   1.5382 B(  1-O ,  2-N ) :   1.5392 
B(  2-N ,  4-C ) :   0.8769 B(  3-N ,  5-C ) :   1.1927 B(  3-N , 14-H ) :   0.9445 
B(  3-N , 15-H ) :   0.9374 B(  4-C ,  6-C ) :   1.3608 B(  4-C ,  7-C ) :   1.3490 
B(  5-C ,  8-C ) :   1.3134 B(  5-C ,  9-C ) :   1.3148 B(  6-C ,  8-C ) :   1.3703 
B(  6-C , 10-H ) :   0.9815 B(  7-C ,  9-C ) :   1.3663 B(  7-C , 11-H ) :   0.9842 
B(  8-C , 12-H ) :   0.9866 B(  9-C , 13-H ) :   0.9812 B( 16-O , 17-H ) :   0.9992 
B( 16-O , 18-H ) :   0.9731 

-------
TIMINGS
-------

Total SCF time: 0 days 0 hours 0 min 6 sec 

Total time                  ....       6.184 sec
Sum of individual times     ....       6.141 sec  ( 99.3%)

SCF preparation             ....       1.388 sec  ( 22.4%)
Fock matrix formation       ....       4.360 sec  ( 70.5%)
  Startup                   ....       0.021 sec  (  0.5% of F)
  Split-RI-J                ....       0.734 sec  ( 16.8% of F)
  Chain of spheres X        ....       2.364 sec  ( 54.2% of F)
  XC integration            ....       1.138 sec  ( 26.1% of F)
    XC Preparation          ....       0.000 sec  (  0.0% of XC)
    Basis function eval.    ....       0.154 sec  ( 13.5% of XC)
    Density eval.           ....       0.069 sec  (  6.1% of XC)
    XC-Functional eval.     ....       0.037 sec  (  3.3% of XC)
    XC-Potential eval.      ....       0.090 sec  (  7.9% of XC)
Diagonalization             ....       0.000 sec  (  0.0%)
Density matrix formation    ....       0.052 sec  (  0.8%)
Total Energy calculation    ....       0.043 sec  (  0.7%)
Population analysis         ....       0.017 sec  (  0.3%)
Orbital Transformation      ....       0.024 sec  (  0.4%)
Orbital Orthonormalization  ....       0.000 sec  (  0.0%)
DIIS solution               ....       0.123 sec  (  2.0%)
SOSCF solution              ....       0.134 sec  (  2.2%)
Finished LeanSCF after   6.2 sec

Maximum memory used throughout the entire LEANSCF-calculation: 20.1 MB


-------------------------------------------------------------------------------
                          DFT DISPERSION CORRECTION                            
                                                                               
                              DFTD3 V3.1  Rev 1                                
                          USING Becke-Johnson damping                          
-------------------------------------------------------------------------------
The B3LYP functional is recognized
Active option DFTDOPT                   ...         4   

molecular C6(AA) [au] = 3865.985625 


            DFT-D V3
 parameters
 s6 scaling factor         :     1.0000 
 a1 scaling factor         :     0.3981 
 s8 scaling factor         :     1.9889 
 a2 scaling factor         :     4.4211 
 ad hoc parameters k1-k3   :    16.0000     1.3333    -4.0000 

 Edisp/kcal,au: -20.553371914903  -0.032753879538 
 E6   /kcal   :  -9.728282040 
 E8   /kcal   : -10.825089875 
 % E8         :  52.668194395 

-------------------------   ----------------
Dispersion correction           -0.032753880
-------------------------   ----------------


-------------------------   --------------------
FINAL SINGLE POINT ENERGY      -567.850919838291
-------------------------   --------------------

--------------------------------------------------------------------------
By default, for Open MPI 4.0 and later, infiniband ports on a device
are not used by default.  The intent is to use UCX for these devices.
You can override this policy by setting the btl_openib_allow_ib MCA parameter
to true.

  Local host:              psid00
  Local adapter:           mlx5_0
  Local port:              1

--------------------------------------------------------------------------
--------------------------------------------------------------------------
WARNING: There was an error initializing an OpenFabrics device.

  Local host:   psid00
  Local device: mlx5_0
--------------------------------------------------------------------------


           ************************************************************
           *        Program running with 40 parallel MPI-processes    *
           *              working on a common directory               *
           ************************************************************
------------------------------------------------------------------------------
                         ORCA SCF GRADIENT CALCULATION
------------------------------------------------------------------------------

Nuc. rep. gradient        (SHARK) ... done (  0.0 sec)
HCore & Overlap gradient  (SHARK) ... done (  0.0 sec)
Split-RIJ-J gradient      (SHARK) ... done (  0.2 sec)
COSX-gradient                     ... done (  1.4 sec)
XC gradient                       ... done (  2.6 sec)
Dispersion correction             ... done (  0.1 sec)

-------------------
DISPERSION GRADIENT
-------------------

   1   O   :    0.000445086   -0.000171117    0.000179322
   2   O   :    0.000458283   -0.000149288   -0.000170829
   3   N   :    0.000560821   -0.000199535    0.000006439
   4   N   :   -0.000612849    0.000060340    0.000135956
   5   C   :    0.000425744   -0.000164570    0.000015856
   6   C   :   -0.000396364   -0.000067455    0.000169154
   7   C   :    0.000081372   -0.000085237    0.000577565
   8   C   :    0.000184332   -0.000084299   -0.000535241
   9   C   :   -0.000181843   -0.000021362    0.000594364
  10   C   :   -0.000036747   -0.000154762   -0.000457881
  11   H   :    0.000075554   -0.000055242    0.000345245
  12   H   :    0.000113201   -0.000021466   -0.000343298
  13   H   :   -0.000112875    0.000007246    0.000349034
  14   H   :   -0.000051733   -0.000031916   -0.000346781
  15   H   :   -0.000301262    0.000015303    0.000141648
  16   H   :   -0.000328399   -0.000025855   -0.000036370
  17   O   :   -0.000153729    0.000493385   -0.000323442
  18   H   :   -0.000011445    0.000347143   -0.000183457
  19   H   :   -0.000157147    0.000308686   -0.000117281

Difference to translation invariance:
           :   -0.0000000000   -0.0000000000   -0.0000000000

Difference to rotation invariance:
           :   -0.0000000000   -0.0000000000    0.0000000000

Norm of the Dispersion gradient    ...    0.0020897408
RMS gradient                       ...    0.0002767929
MAX gradient                       ...    0.0006128494

------------------
CARTESIAN GRADIENT
------------------

   1   O   :   -0.000024449   -0.000015127   -0.000029565
   2   O   :   -0.000049712   -0.000027493    0.000060359
   3   N   :    0.000319818   -0.000020007   -0.000005757
   4   N   :    0.002810953    0.001592202   -0.003824393
   5   C   :   -0.000554118    0.000170575    0.000034549
   6   C   :    0.000180267   -0.000503270    0.000617051
   7   C   :    0.000269159   -0.000104965    0.000118026
[...]
          RMS gradient        0.0002033384            0.0001000000      NO
          MAX gradient        0.0009198971            0.0003000000      NO
          RMS step            0.0251518426            0.0020000000      NO
          MAX step            0.1097065861            0.0040000000      NO
          ........................................................
          Max(Bonds)      0.0546      Max(Angles)    2.27
          Max(Dihed)        6.29      Max(Improp)    0.00
          ---------------------------------------------------------------------

The optimization has not yet converged - more geometry cycles are needed


    ---------------------------------------------------------------------------
                         Redundant Internal Coordinates
                            (Angstroem and degrees)

        Definition                    Value    dE/dq     Step     New-Value
    ----------------------------------------------------------------------------
     1. B(N   2,O   0)                1.2257  0.000139 -0.0000    1.2257   
     2. B(N   2,O   1)                1.2257 -0.000326  0.0000    1.2257   
     3. B(C   4,N   2)                1.4559 -0.000120  0.0002    1.4561   
     4. B(C   5,N   3)                1.3583  0.000920  0.0017    1.3601   
     5. B(C   6,C   4)                1.3996  0.000095  0.0005    1.4001   
     6. B(C   7,C   4)                1.3996 -0.000474 -0.0005    1.3991   
     7. B(C   8,C   5)                1.4175 -0.000342  0.0004    1.4179   
     8. B(C   8,C   6)                1.3855 -0.000039 -0.0002    1.3853   
     9. B(C   9,C   7)                1.3850  0.000446  0.0005    1.3855   
    10. B(C   9,C   5)                1.4214  0.000528  0.0008    1.4223   
    11. B(H  10,C   6)                1.0896 -0.000037  0.0000    1.0896   
    12. B(H  11,C   7)                1.0897 -0.000053  0.0000    1.0897   
    13. B(H  12,C   8)                1.0932  0.000062 -0.0001    1.0932   
    14. B(H  13,C   9)                1.0918 -0.000260  0.0001    1.0919   
    15. B(H  14,N   3)                1.0098  0.000355  0.0000    1.0099   
    16. B(H  15,N   3)                1.0178 -0.000716  0.0005    1.0182   
    17. B(O  16,H  15)                1.9028  0.000275  0.0027    1.9056   
    18. B(O  16,H  13)                2.7150 -0.000067 -0.0353    2.6797   
    19. B(H  17,H  13)                2.8029 -0.000008 -0.0426    2.7603   
    20. B(H  17,O  16)                0.9682  0.000773 -0.0033    0.9649   
    21. B(H  18,H  13)                2.8052 -0.000110 -0.0546    2.7506   
    22. B(H  18,H  15)                2.4690  0.000138  0.0079    2.4769   
    23. B(H  18,N   3)                3.3758 -0.000275  0.0022    3.3779   
    24. B(H  18,O  16)                0.9668 -0.000301  0.0022    0.9690   
    25. A(O   0,N   2,C   4)          117.92  0.000004    0.02    117.94   
    26. A(O   1,N   2,C   4)          117.89  0.000090   -0.01    117.87   
    27. A(O   0,N   2,O   1)          124.19 -0.000094   -0.01    124.18   
    28. A(C   5,N   3,H  18)          105.79  0.000105   -1.87    103.93   
    29. A(C   5,N   3,H  15)          119.49 -0.000055   -0.17    119.33   
    30. A(H  15,N   3,H  18)           22.78 -0.000193    0.44     23.22   
    31. A(H  14,N   3,H  18)          129.51 -0.000167    0.33    129.84   
    32. A(C   5,N   3,H  14)          120.67  0.000096   -0.03    120.65   
    33. A(H  14,N   3,H  15)          119.83 -0.000042    0.20    120.02   
    34. A(N   2,C   4,C   6)          119.63 -0.000271   -0.06    119.57   
    35. A(C   6,C   4,C   7)          120.71  0.000184    0.04    120.74   
    36. A(N   2,C   4,C   7)          119.67  0.000087    0.02    119.69   
    37. A(N   3,C   5,C   8)          121.88  0.000464   -0.11    121.77   
    38. A(N   3,C   5,C   9)          119.94 -0.000559    0.12    120.06   
    39. A(C   8,C   5,C   9)          118.18  0.000094   -0.01    118.17   
    40. A(C   8,C   6,H  10)          121.41 -0.000091   -0.03    121.38   
    41. A(C   4,C   6,H  10)          118.90  0.000095    0.01    118.91   
    42. A(C   4,C   6,C   8)          119.69 -0.000004    0.02    119.72   
    43. A(C   4,C   7,C   9)          119.72 -0.000035   -0.03    119.69   
    44. A(C   9,C   7,H  11)          121.41 -0.000085    0.07    121.48   
    45. A(C   4,C   7,H  11)          118.87  0.000120   -0.04    118.83   
    46. A(C   6,C   8,H  12)          119.84 -0.000028    0.01    119.85   
    47. A(C   5,C   8,C   6)          120.90  0.000007   -0.03    120.87   
    48. A(C   5,C   8,H  12)          119.26  0.000022    0.02    119.28   
    49. A(C   5,C   9,C   7)          120.80 -0.000246    0.01    120.81   
    50. A(C   7,C   9,H  13)          120.19 -0.000324    0.01    120.20   
    51. A(C   5,C   9,H  13)          119.01  0.000569   -0.05    118.96   
    52. A(C   9,H  13,H  18)          135.57 -0.000277   -0.16    135.41   
    53. A(O  16,H  13,H  18)           20.09 -0.000052    0.42     20.51   
    54. A(O  16,H  13,H  17)           20.13  0.000153    0.26     20.39   
    55. A(C   9,H  13,H  17)          145.61 -0.000205   -0.65    144.96   
    56. A(C   9,H  13,O  16)          131.18 -0.000312   -0.58    130.60   
    57. A(H  17,H  13,H  18)           31.70  0.000080    0.46     32.16   
    58. A(N   3,H  15,H  18)          148.04  0.000333   -0.43    147.61   
    59. A(O  16,H  15,H  18)           20.83 -0.000087   -0.41     20.42   
    60. A(N   3,H  15,O  16)          168.04  0.000260   -1.06    166.98   
    61. A(H  17,O  16,H  18)          104.66  0.000003   -0.49    104.17   
    62. A(H  13,O  16,H  15)           58.96  0.000141    0.75     59.71   
    63. A(H  15,O  16,H  18)          114.75  0.000075    0.52    115.27   
    64. A(H  15,O  16,H  17)          121.85 -0.000003   -2.27    119.59   
    65. A(H  13,O  16,H  18)           85.23  0.000018   -1.36     83.87   
    66. A(H  13,O  16,H  17)           85.06 -0.000083   -0.52     84.55   
    67. A(H  13,H  17,O  16)           74.81 -0.000069    0.26     75.07   
    68. A(H  15,H  18,O  16)           44.42  0.000012   -0.12     44.30   
    69. A(N   3,H  18,O  16)           53.48 -0.000123   -0.34     53.13   
    70. A(H  13,H  18,H  15)           53.18  0.000118    0.78     53.97   
    71. A(N   3,H  18,H  13)           49.48  0.000199    0.43     49.91   
    72. A(H  13,H  18,O  16)           74.69  0.000034    0.94     75.62   
    73. A(N   3,H  18,H  15)            9.18 -0.000139   -0.01      9.17   
    74. D(C   6,C   4,N   2,O   0)      0.36  0.000030   -0.06      0.30   
    75. D(C   7,C   4,N   2,O   0)   -179.58  0.000047   -0.08   -179.66   
    76. D(C   7,C   4,N   2,O   1)      0.43  0.000021   -0.06      0.37   
    77. D(C   6,C   4,N   2,O   1)   -179.63  0.000005   -0.04   -179.67   
    78. D(C   8,C   5,N   3,H  18)    160.27  0.000060   -0.87    159.40   
    79. D(C   8,C   5,N   3,H  14)      0.81  0.000017    2.39      3.20   
    80. D(C   8,C   5,N   3,H  15)   -179.92 -0.000070   -1.77   -181.70   
    81. D(C   9,C   5,N   3,H  15)      0.51  0.000083   -1.83     -1.32   
    82. D(C   9,C   5,N   3,H  14)   -178.76  0.000170    2.34   -176.43   
    83. D(C   8,C   6,C   4,C   7)     -0.18 -0.000028   -0.03     -0.21   
    84. D(H  10,C   6,C   4,N   2)     -0.10  0.000010   -0.03     -0.12   
    85. D(H  10,C   6,C   4,C   7)    179.84 -0.000007   -0.01    179.84   
    86. D(C   8,C   6,C   4,N   2)    179.88 -0.000012   -0.05    179.83   
    87. D(C   9,C   7,C   4,N   2)   -179.93 -0.000007    0.05   -179.89   
    88. D(C   9,C   7,C   4,C   6)      0.13  0.000010    0.03      0.15   
    89. D(H  11,C   7,C   4,C   6)   -179.86  0.000033   -0.01   -179.87   
    90. D(H  11,C   7,C   4,N   2)      0.08  0.000016    0.01      0.10   
    91. D(H  12,C   8,C   6,H  10)      0.08  0.000039   -0.01      0.07   
    92. D(H  12,C   8,C   6,C   4)   -179.89  0.000061    0.01   -179.88   
    93. D(C   5,C   8,C   6,H  10)    179.95 -0.000013   -0.03    179.92   
    94. D(C   5,C   8,C   6,C   4)     -0.02  0.000009   -0.00     -0.02   
    95. D(H  12,C   8,C   5,C   9)   -179.86 -0.000026    0.02   -179.84   
    96. D(H  12,C   8,C   5,N   3)      0.56  0.000127   -0.04      0.53   
    97. D(C   6,C   8,C   5,C   9)      0.27  0.000026    0.04      0.31   
    98. D(C   6,C   8,C   5,N   3)   -179.30  0.000179   -0.02   -179.33   
    99. D(C   5,C   9,C   7,C   4)      0.13  0.000026    0.01      0.14   
   100. D(H  13,C   9,C   5,C   8)    179.42 -0.000161   -0.03    179.39   
   101. D(H  13,C   9,C   5,N   3)     -0.99 -0.000306    0.02     -0.97   
   102. D(C   7,C   9,C   5,C   8)     -0.33 -0.000043   -0.04     -0.37   
   103. D(C   5,C   9,C   7,H  11)   -179.88  0.000002    0.04   -179.84   
   104. D(C   7,C   9,C   5,N   3)    179.26 -0.000189    0.02    179.27   
   105. D(H  13,C   9,C   7,H  11)      0.37  0.000119    0.04      0.42   
   106. D(H  13,C   9,C   7,C   4)   -179.61  0.000142    0.01   -179.60   
   107. D(O  16,H  13,C   9,C   7)   -172.08  0.000126    2.55   -169.53   
   108. D(H  17,H  13,C   9,C   5)    -13.32  0.000186    1.34    -11.97   
   109. D(H  18,H  13,C   9,C   5)     35.28  0.000023    2.71     37.99   
   110. D(O  16,H  13,C   9,C   5)      8.16  0.000243    2.54     10.70   
   111. D(H  17,H  13,C   9,C   7)    166.44  0.000069    1.35    167.79   
   112. D(O  16,H  15,N   3,H  18)     17.45  0.000083    1.40     18.85   
   113. D(O  16,H  15,N   3,H  14)    139.37 -0.000110    2.17    141.54   
   114. D(O  16,H  15,N   3,C   5)    -39.91 -0.000025    6.29    -33.62   
   115. D(H  18,H  15,N   3,H  14)    121.92 -0.000194    0.78    122.70   
   116. D(H  18,H  15,N   3,C   5)    -57.36 -0.000109    4.89    -52.47   
   117. D(H  13,O  16,H  15,H  18)     67.39  0.000068   -0.78     66.61   
   118. D(H  13,O  16,H  15,N   3)     40.89  0.000087   -3.75     37.13   
   119. D(H  18,O  16,H  15,N   3)    -26.51  0.000019   -2.97    -29.48   
   120. D(H  17,O  16,H  15,H  18)    127.91  0.000088   -0.26    127.66   
   121. D(H  17,O  16,H  15,N   3)    101.41  0.000107   -3.23     98.18   
   122. D(H  15,O  16,H  13,H  17)    132.08 -0.000022   -0.67    131.41   
   123. D(H  15,O  16,H  13,C   9)    -10.97 -0.000001   -2.30    -13.27   
   124. D(H  18,O  16,H  13,H  17)   -105.19 -0.000010    0.24   -104.95   
   125. D(H  18,O  16,H  13,C   9)    111.75  0.000011   -1.38    110.37   
   126. D(H  17,O  16,H  13,H  18)    105.19  0.000010   -0.24    104.95   
   127. D(H  17,O  16,H  13,C   9)   -143.06  0.000021   -1.62   -144.68   
   128. D(H  13,H  17,O  16,H  15)    -48.47 -0.000116   -1.36    -49.83   
   129. D(H  13,H  17,O  16,H  18)     83.75 -0.000004   -1.43     82.32   
   130. D(O  16,H  17,H  13,H  18)    -39.11  0.000224   -0.36    -39.47   
   131. D(O  16,H  17,H  13,C   9)     53.22  0.000002   -0.65     52.57   
   132. D(H  15,H  18,N   3,H  14)    -72.63 -0.000022    0.57    -72.05   
   133. D(H  15,H  18,N   3,C   5)    130.39 -0.000153    4.02    134.41   
   134. D(O  16,H  18,N   3,H  15)     -8.75  0.000097   -2.18    -10.93   
   135. D(O  16,H  18,N   3,H  14)    -81.38  0.000075   -1.60    -82.98   
   136. D(O  16,H  18,N   3,C   5)    121.64 -0.000056    1.85    123.48   
   137. D(H  13,H  18,O  16,H  17)    -83.62  0.000082    0.84    -82.78   
   138. D(H  15,H  18,O  16,H  17)   -136.16 -0.000063    1.39   -134.77   
   139. D(N   3,H  18,O  16,H  15)      1.99 -0.000052    0.83      2.82   
   140. D(N   3,H  18,O  16,H  13)    -50.55 -0.000197    1.39    -49.16   
   141. D(H  13,H  18,H  15,O  16)   -107.01  0.000105   -0.50   -107.51   
   142. D(H  13,H  18,H  15,N   3)     62.93  0.000235   -2.32     60.61   
   143. D(N   3,H  18,H  15,O  16)   -169.94 -0.000130    1.82   -168.12   
   144. D(O  16,H  18,H  15,N   3)    169.94  0.000130   -1.82    168.12   
   145. D(H  15,H  18,H  13,C   9)    -43.13  0.000301   -2.15    -45.27   
   146. D(N   3,H  18,H  13,H  17)     93.92  0.000092   -0.79     93.13   
   147. D(N   3,H  18,O  16,H  17)   -134.17 -0.000115    2.23   -131.94   
   148. D(N   3,H  18,H  13,O  16)     54.72 -0.000140   -0.80     53.92   
   149. D(N   3,H  18,H  13,C   9)    -32.35  0.000128   -2.54    -34.89   
   150. D(O  16,H  18,H  13,H  17)     39.20  0.000232    0.01     39.21   
   151. D(H  15,H  18,O  16,H  13)    -52.54 -0.000145    0.55    -51.98   
   152. D(O  16,H  18,H  13,C   9)    -87.07  0.000267   -1.74    -88.81   
   153. D(H  13,H  18,N   3,C   5)     20.07 -0.000051    1.35     21.41   
    ----------------------------------------------------------------------------

Geometry step timings:
Preparation and reading OPT file:      0.003 s (25.886 %)
Internal coordinates            :      0.000 s ( 0.466 %)
B/P matrices and projection     :      0.002 s (16.380 %)
Hessian update/contruction      :      0.001 s ( 9.108 %)
Making the step                 :      0.003 s (30.644 %)
Converting the step to Cartesian:      0.000 s ( 1.796 %)
Storing new data                :      0.000 s ( 0.369 %)
Checking convergence            :      0.000 s ( 0.214 %)
Final printing                  :      0.002 s (15.108 %)
Total time                      :      0.010 s
--------------------------------------------------------------------------
By default, for Open MPI 4.0 and later, infiniband ports on a device
are not used by default.  The intent is to use UCX for these devices.
You can override this policy by setting the btl_openib_allow_ib MCA parameter
to true.

  Local host:              psid00
  Local adapter:           mlx5_0
  Local port:              1

--------------------------------------------------------------------------
--------------------------------------------------------------------------
WARNING: There was an error initializing an OpenFabrics device.

  Local host:   psid00
  Local device: mlx5_0
--------------------------------------------------------------------------
[psid00:213182] 39 more processes have sent help message help-mpi-btl-openib.txt / ib port not selected
[psid00:213182] Set MCA parameter "orte_base_help_aggregate" to 0 to see all help / error messages
[psid00:213182] 39 more processes have sent help message help-mpi-btl-openib.txt / error in device init

Time for energy+gradient        :     10.317 s
Time for complete geometry iter :     11.705 s




    ----------------------------------------------------------------------------
                                  WARNING !!!
       The optimization did not converge but reached the maximum number of
       optimization cycles.
       Please check your results very carefully.
    ----------------------------------------------------------------------------



--------------------------------
SUGGESTED CITATIONS FOR THIS RUN
--------------------------------

Below you find a list of papers that are relevant to this ORCA run
We neither can nor want to force you to cite these papers, but we appreciate if you do
You receive ORCA, which is the product of decades of hard work by many enthusiastic individuals, for free
The only thing we kindly ask in return is that you cite our papers,
We deeply appreciate it, if you show your appreciation for ORCA by not just citing the generic ORCA reference.

Please note that relegating all ORCA citations to the supporting information does *not* help us.
SI sections are not indexed - citations you put there will not count into any citation statistics
But we need these citations in order to attract the funding resources that allow us to do what we are doing

Therefore, if you are a happy ORCA user, please consider citing a few of the papers listed below in the main body of your paper

In addition to the list printed below, the program has created the file 4nitroaniline_water_2_OPT.bibtex that contains the list in bibtex format
You can import this file easily into all common literature databanks and citation aid programs


List of essential papers. We consider these as the minimum necessary citations

  1. Neese,F.
     Software update: the ORCA program system, version 5.0
     WIRES Comput. Molec. Sci., 2022 12(1)e1606
     doi.org/10.1002/wcms.1606

List of papers to cite with high priority. The work reported in these papers was absolutely
necessary for this run to complete.
Our perspective: the developers of density functionals and basis sets usually get cited in chemistry papers
Good! But without the algorithms to do something with them, the functionals or basis sets would not do anything.
Hence, in our opinion, the algorithm design and method developments papers are equally worthy of getting cited

  1. Neese,F.
     An improvement of the resolution of the identity approximation for the formation of the Coulomb matrix
     J. Comp. Chem., 2003 24(14)1740-1747
     doi.org/10.1002/jcc.10318
  2. Neese,F.; Wennmohs,F.; Hansen,A.; Becker,U.
     Efficient, approximate and parallel Hartree-Fock and hybrid DFT calculations. A 'chain-of-spheres' algorithm for the Hartree-Fock exchange
     Chem. Phys., 2009 356(1-3)98-109
     doi.org/10.1016/j.chemphys.2008.10.036
  3. Helmich-Paris,B.; de Souza,B.; Neese,F.; Izsák,R.
     An improved chain of spheres for exchange algorithm
     J. Chem. Phys., 2021 155 104109
     doi.org/doi: 10.1063/5.0058766.
  4. Neese,F.
     The SHARK Integral Generation and Digestion System
     J. Comp. Chem., 2022  1-16
     doi.org/10.1002/jcc.26942
  5. Grimme,S.; Antony,J.; Ehrlich,S.; Krieg,H.
     A consistent and accurate ab initio parametrization of density functional dispersion correction (DFT-D) for the 94 elements H-Pu
     J. Chem. Phys., 2010 132 154104
     doi.org/10.1063/1.3382344
  6. Grimme,S.; Ehrlich,S.; Goerigk,L.
     Effect of the damping function in dispersion corrected density functional theory
     J. Comput. Chem., 2011 32(7)1456-1465
     doi.org/10.1002/jcc.21759

List of suggested additional citations. These are papers that are important in the 'surrounding' of 
of this run, or papers that preceded the highly important papers. If you like your results we are grateful for a citation.

  1. Izsak,R.; Neese,F.
     An overlap fitted chain of spheres exchange method
     J. Chem. Phys., 2011 135 144105
     doi.org/10.1063/1.3646921
  2. Izsak,R.; Hansen,A.; Neese,F.
     The resolution of identity and chain of spheres approximations for the LPNO-CCSD singles Fock term
     Molec. Phys., 2012 110 2413-2417
     doi.org/10.1080/00268976.2012.687466
  3. Neese,F.
     The ORCA program system
     WIRES Comput. Molec. Sci., 2012 2(1)73-78
     doi.org/10.1002/wcms.81
  4. Izsak,R.; Neese,F.; Klopper,W.
     Robust fitting techniques in the chain of spheres approximation to the Fock exchange: The role of the complementary space
     J. Chem. Phys., 2013 139 
     doi.org/10.1063/1.4819264
  5. Neese,F.
     Software update: the ORCA program system, version 4.0
     WIRES Comput. Molec. Sci., 2018 8(1)1-6
     doi.org/10.1002/wcms.1327
  6. Neese,F.; Wennmohs,F.; Becker,U.; Riplinger,C.
     The ORCA quantum chemistry program package
     J. Chem. Phys., 2020 152 Art. No. L224108
     doi.org/10.1063/5.0004608

List of optional additional citations

  1. Neese,F.
     Approximate second-order SCF convergence for spin unrestricted wavefunctions
     Chem. Phys. Lett., 2000 325(1-3)93-98
     doi.org/10.1016/s0009-2614(00)00662-x

Timings for individual modules:

Sum of individual times          ...      611.322 sec (=  10.189 min)
Startup calculation              ...      136.099 sec (=   2.268 min)  22.3 %
SCF iterations                   ...      313.720 sec (=   5.229 min)  51.3 %
SCF Gradient evaluation          ...      160.919 sec (=   2.682 min)  26.3 %
Geometry relaxation              ...        0.584 sec (=   0.010 min)   0.1 %
                             ****ORCA TERMINATED NORMALLY****
TOTAL RUN TIME: 0 days 0 hours 11 minutes 33 seconds 749 msec
