--------------------------------------------------------------------------
By default, for Open MPI 4.0 and later, infiniband ports on a device
are not used by default.  The intent is to use UCX for these devices.
You can override this policy by setting the btl_openib_allow_ib MCA parameter
to true.

  Local host:              psid10
  Local adapter:           mlx4_0
  Local port:              1

--------------------------------------------------------------------------
--------------------------------------------------------------------------
WARNING: There was an error initializing an OpenFabrics device.

  Local host:   psid10
  Local device: mlx4_0
--------------------------------------------------------------------------

     Program PWSCF v.7.3.1 starts on 11Feb2025 at 20:28:21 

     This program is part of the open-source Quantum ESPRESSO suite
     for quantum simulation of materials; please cite
         "P. Giannozzi et al., J. Phys.:Condens. Matter 21 395502 (2009);
         "P. Giannozzi et al., J. Phys.:Condens. Matter 29 465901 (2017);
         "P. Giannozzi et al., J. Chem. Phys. 152 154105 (2020);
          URL http://www.quantum-espresso.org", 
     in publications or presentations arising from this work. More details at
     http://www.quantum-espresso.org/quote

     Parallel version (MPI), running on    32 processors

     MPI processes distributed on     1 nodes
     149440 MiB available memory on the printing compute node when the environment starts

     Waiting for input...
     Reading input from standard input
Warning: card &CELL ignored
Warning: card / ignored

     Current dimensions of program PWSCF are:
     Max number of different atomic species (ntypx) = 10
     Max number of k-points (npk) =  40000
     Max angular momentum in pseudopotentials (lmaxx) =  4
     file C.pbe-n-kjpaw_psl.1.0.0.UPF: wavefunction(s)  2S 2P renormalized

     gamma-point specific algorithms are used

     R & G space division:  proc/nbgrp/npool/nimage =      32
     Subspace diagonalization in iterative solution of the eigenvalue problem:
     one sub-group per band group will be used
     custom distributed-memory algorithm (size of sub-group:  5*  5 procs)


     Parallelization info
     --------------------
     sticks:   dense  smooth     PW     G-vecs:    dense   smooth      PW
     Min         617     246     61               129156    32666    4080
     Max         620     248     62               129176    32694    4090
     Sum       19777    7901   1983              4133441  1045681  130765

     Using Slab Decomposition



     bravais-lattice index     =           14
     lattice parameter (alat)  =      27.0138  a.u.
     unit-cell volume          =   21892.5290 (a.u.)^3
     number of atoms/cell      =           79
     number of atomic types    =            4
     number of electrons       =      1324.00
     number of Kohn-Sham states=          794
     kinetic-energy cutoff     =      50.0000  Ry
     charge density cutoff     =     500.0000  Ry
     scf convergence threshold =      1.0E-06
     mixing beta               =       0.7000
     number of iterations used =            8  plain     mixing
     energy convergence thresh.=      1.0E-04
     force convergence thresh. =      1.0E-03
     Exchange-correlation= PBE
                           (   1   4   3   4   0   0   0)
     nstep                     =          100


     celldm(1)=  27.013824  celldm(2)=   0.731537  celldm(3)=   1.757301
     celldm(4)=  -0.365770  celldm(5)=  -0.070307  celldm(6)=   0.365770

     crystal axes: (cart. coord. in units of alat)
               a(1) = (   1.000000   0.000000   0.000000 )  
               a(2) = (   0.267574   0.680846   0.000000 )  
               a(3) = (  -0.123550  -0.642069   1.631132 )  

     reciprocal axes: (cart. coord. in units 2 pi/alat)
               b(1) = (  1.000000 -0.393003 -0.078955 )  
               b(2) = ( -0.000000  1.468762  0.578155 )  
               b(3) = (  0.000000  0.000000  0.613071 )  


     PseudoPot. # 1 for Zn read from file:
     /home/ys/qe-7.3.1/pseudo/Standard_solid-state_pseudopotentials_SSSP_1.3.0_PBE_efficiency/Zn_pbe_v1.uspp.F.UPF
     MD5 check sum: df62231357ef9e81f77b2b3087fa5675
     Pseudo is Ultrasoft, Zval = 20.0
     Generated by new atomic code, or converted to UPF format
     Using radial grid of  943 points,  6 beta functions with: 
                l(1) =   0
                l(2) =   0
                l(3) =   1
                l(4) =   1
                l(5) =   2
                l(6) =   2
     Q(r) pseudized with  8 coefficients,  rinner =    1.100   1.100   1.100
                                                       1.100   1.100

     PseudoPot. # 2 for C  read from file:
     /home/ys/qe-7.3.1/pseudo/Standard_solid-state_pseudopotentials_SSSP_1.3.0_PBE_efficiency/C.pbe-n-kjpaw_psl.1.0.0.UPF
     MD5 check sum: 5d2aebdfa2cae82b50a7e79e9516da0f
     Pseudo is Projector augmented-wave + core cor, Zval =  4.0
     Generated using "atomic" code by A. Dal Corso  v.5.1
     Shape of augmentation charge: PSQ
     Using radial grid of 1073 points,  4 beta functions with: 
                l(1) =   0
                l(2) =   0
                l(3) =   1
                l(4) =   1
     Q(r) pseudized with 0 coefficients 


     PseudoPot. # 3 for N  read from file:
     /home/ys/qe-7.3.1/pseudo/Standard_solid-state_pseudopotentials_SSSP_1.3.0_PBE_efficiency/N.pbe-n-radius_5.UPF
     MD5 check sum: 16739722b17309cd8fe442a2ace49922
     Pseudo is Ultrasoft + core correction, Zval =  5.0
     Generated using "atomic" code by A. Dal Corso  v.5.1
     Using radial grid of 1085 points,  4 beta functions with: 
                l(1) =   0
                l(2) =   0
                l(3) =   1
                l(4) =   1
     Q(r) pseudized with 0 coefficients 


     PseudoPot. # 4 for H  read from file:
     /home/ys/qe-7.3.1/pseudo/Standard_solid-state_pseudopotentials_SSSP_1.3.0_PBE_efficiency/H.pbe-rrkjus_psl.1.0.0.UPF
     MD5 check sum: f52b6d4d1c606e5624b1dc7b2218f220
     Pseudo is Ultrasoft, Zval =  1.0
     Generated using "atomic" code by A. Dal Corso  v.5.1
     Using radial grid of  929 points,  2 beta functions with: 
                l(1) =   0
                l(2) =   0
     Q(r) pseudized with 0 coefficients 


     atomic species   valence    mass     pseudopotential
     Zn               20.00    65.39000     Zn( 1.00)
     C                 4.00    12.01070     C ( 1.00)
     N                 5.00    14.00674     N ( 1.00)
     H                 1.00     1.00794     H ( 1.00)

     No symmetry found



   Cartesian axes

     site n.     atom                  positions (alat units)
         1        Zn     tau(   1) = (   0.1250000   0.0491254   0.0193370  )
         2        Zn     tau(   2) = (   0.1918940   0.2193373   0.0193370  )
         3        Zn     tau(   3) = (   0.2587883   0.3895500   0.0193370  )
         4        Zn     tau(   4) = (   0.3256821   0.5597613   0.0193370  )
         5        Zn     tau(   5) = (   0.3749993   0.0491254   0.0193370  )
         6        Zn     tau(   6) = (   0.4418933   0.2193373   0.0193370  )
         7        Zn     tau(   7) = (   0.5087876   0.3895500   0.0193370  )
         8        Zn     tau(   8) = (   0.5756814   0.5597613   0.0193370  )
         9        Zn     tau(   9) = (   0.6249986   0.0491254   0.0193370  )
        10        Zn     tau(  10) = (   0.6918927   0.2193373   0.0193370  )
        11        Zn     tau(  11) = (   0.7587870   0.3895500   0.0193370  )
        12        Zn     tau(  12) = (   0.8256808   0.5597613   0.0193370  )
        13        Zn     tau(  13) = (   0.8749979   0.0491254   0.0193370  )
        14        Zn     tau(  14) = (   0.9418920   0.2193373   0.0193370  )
        15        Zn     tau(  15) = (   1.0087863   0.3895500   0.0193370  )
        16        Zn     tau(  16) = (   1.0756801   0.5597613   0.0193370  )
        17        Zn     tau(  17) = (   0.1743167   0.0297438   0.2127125  )
        18        Zn     tau(  18) = (   0.2412107   0.1999557   0.2127125  )
        19        Zn     tau(  19) = (   0.3081047   0.3701677   0.2127125  )
        20        Zn     tau(  20) = (   0.3749988   0.5403797   0.2127125  )
        21        Zn     tau(  21) = (   0.4243160   0.0297438   0.2127125  )
        22        Zn     tau(  22) = (   0.4912100   0.1999557   0.2127125  )
        23        Zn     tau(  23) = (   0.5581040   0.3701677   0.2127125  )
        24        Zn     tau(  24) = (   0.6249981   0.5403797   0.2127125  )
        25        Zn     tau(  25) = (   0.6743153   0.0297438   0.2127125  )
        26        Zn     tau(  26) = (   0.7412094   0.1999557   0.2127125  )
        27        Zn     tau(  27) = (   0.8081034   0.3701677   0.2127125  )
        28        Zn     tau(  28) = (   0.8749974   0.5403797   0.2127125  )
        29        Zn     tau(  29) = (   0.9243146   0.0297438   0.2127125  )
        30        Zn     tau(  30) = (   0.9912087   0.1999557   0.2127125  )
        31        Zn     tau(  31) = (   1.0581027   0.3701677   0.2127125  )
        32        Zn     tau(  32) = (   1.1249967   0.5403797   0.2127125  )
        33        Zn     tau(  33) = (   0.2412112   0.0034536   0.1353626  )
        34        Zn     tau(  34) = (   0.3081052   0.1736656   0.1353626  )
        35        Zn     tau(  35) = (   0.3749990   0.3438769   0.1353626  )
        36        Zn     tau(  36) = (   0.4418933   0.5140895   0.1353626  )
        37        Zn     tau(  37) = (   0.4912105   0.0034536   0.1353626  )
        38        Zn     tau(  38) = (   0.5581045   0.1736656   0.1353626  )
        39        Zn     tau(  39) = (   0.6249983   0.3438769   0.1353626  )
        40        Zn     tau(  40) = (   0.6918926   0.5140895   0.1353626  )
        41        Zn     tau(  41) = (   0.7412099   0.0034536   0.1353626  )
        42        Zn     tau(  42) = (   0.8081039   0.1736656   0.1353626  )
        43        Zn     tau(  43) = (   0.8749977   0.3438769   0.1353626  )
        44        Zn     tau(  44) = (   0.9418920   0.5140895   0.1353626  )
        45        Zn     tau(  45) = (   0.9912092   0.0034536   0.1353626  )
        46        Zn     tau(  46) = (   1.0581032   0.1736656   0.1353626  )
        47        Zn     tau(  47) = (   1.1249970   0.3438769   0.1353626  )
        48        Zn     tau(  48) = (   1.1918913   0.5140895   0.1353626  )
        49        Zn     tau(  49) = (   0.0581054   0.0754155   0.0966869  )
        50        Zn     tau(  50) = (   0.1249995   0.2456275   0.0966869  )
        51        Zn     tau(  51) = (   0.1918935   0.4158395   0.0966869  )
        52        Zn     tau(  52) = (   0.2587876   0.5860514   0.0966869  )
        53        Zn     tau(  53) = (   0.3081047   0.0754155   0.0966869  )
        54        Zn     tau(  54) = (   0.3749988   0.2456275   0.0966869  )
        55        Zn     tau(  55) = (   0.4418928   0.4158395   0.0966869  )
        56        Zn     tau(  56) = (   0.5087869   0.5860514   0.0966869  )
        57        Zn     tau(  57) = (   0.5581041   0.0754155   0.0966869  )
        58        Zn     tau(  58) = (   0.6249981   0.2456275   0.0966869  )
        59        Zn     tau(  59) = (   0.6918922   0.4158395   0.0966869  )
        60        Zn     tau(  60) = (   0.7587862   0.5860514   0.0966869  )
        61        Zn     tau(  61) = (   0.8081034   0.0754155   0.0966869  )
        62        Zn     tau(  62) = (   0.8749974   0.2456275   0.0966869  )
        63        Zn     tau(  63) = (   0.9418915   0.4158395   0.0966869  )
        64        Zn     tau(  64) = (   1.0087855   0.5860514   0.0966869  )
        65        C      tau(  65) = (   0.5820405   0.3909006   0.5064808  )
        66        C      tau(  66) = (   0.5775229   0.3630160   0.5991942  )
        67        C      tau(  67) = (   0.6491249   0.3521214   0.4452432  )
        68        C      tau(  68) = (   0.6397793   0.2952875   0.6345718  )
        69        C      tau(  69) = (   0.6350794   0.2666904   0.7298788  )
        70        C      tau(  70) = (   0.7114265   0.2842583   0.4808622  )
        71        C      tau(  71) = (   0.7067906   0.2564787   0.5736067  )
        72        N      tau(  72) = (   0.6536361   0.3795981   0.3536177  )
        73        N      tau(  73) = (   0.6312195   0.2432281   0.8080230  )
        74        H      tau(  74) = (   0.5332161   0.4434656   0.4803403  )
        75        H      tau(  75) = (   0.5253225   0.3936737   0.6454971  )
        76        H      tau(  76) = (   0.6093397   0.4281347   0.3278850  )
        77        H      tau(  77) = (   0.7638247   0.2534038   0.4346751  )
        78        H      tau(  78) = (   0.7554130   0.2040227   0.5999266  )
        79        H      tau(  79) = (   0.7015135   0.3521654   0.3096261  )

     number of k points=     1  Gaussian smearing, width (Ry)=  0.0100
                       cart. coord. in units 2pi/alat
        k(    1) = (   0.0000000   0.0000000   0.0000000), wk =   2.0000000

     Dense  grid:  2066721 G-vectors     FFT dimensions: ( 200, 144, 360)

     Smooth grid:   522841 G-vectors     FFT dimensions: ( 125,  90, 216)

     Estimated max dynamical RAM per process >     497.85 MB

     Estimated total dynamical RAM >      15.56 GB

     Initial potential from superposition of free atoms

     starting charge    1323.9906, renormalised to    1324.0000

     negative rho (up, down):  1.824E-03 0.000E+00
     Starting wfcs are  874 randomized atomic wfcs
[psid10:209843] 31 more processes have sent help message help-mpi-btl-openib.txt / ib port not selected
[psid10:209843] Set MCA parameter "orte_base_help_aggregate" to 0 to see all help / error messages
[psid10:209843] 31 more processes have sent help message help-mpi-btl-openib.txt / error in device init
     Checking if some PAW data can be deallocated... 

     total cpu time spent up to now is       27.7 secs

     Self-consistent Calculation

     iteration #  1     ecut=    50.00 Ry     beta= 0.70
     Davidson diagonalization with overlap
     ethr =  1.00E-02,  avg # of iterations =  8.0

     Threshold (ethr) on eigenvalues was too large:
     Diagonalizing with lowered threshold

     Davidson diagonalization with overlap
     ethr =  7.60E-04,  avg # of iterations =  2.0

     negative rho (up, down):  1.082E-03 0.000E+00

     total cpu time spent up to now is      207.0 secs

     total energy              =  -29655.54762997 Ry
     estimated scf accuracy    <      10.12742899 Ry

     iteration #  2     ecut=    50.00 Ry     beta= 0.70
     Davidson diagonalization with overlap
