
                                 *****************
                                 * O   R   C   A *
                                 *****************

                                            #,                                       
                                            ###                                      
                                            ####                                     
                                            #####                                    
                                            ######                                   
                                           ########,                                 
                                     ,,################,,,,,                         
                               ,,#################################,,                 
                          ,,##########################################,,             
                       ,#########################################, ''#####,          
                    ,#############################################,,   '####,        
                  ,##################################################,,,,####,       
                ,###########''''           ''''###############################       
              ,#####''   ,,,,##########,,,,          '''####'''          '####       
            ,##' ,,,,###########################,,,                        '##       
           ' ,,###''''                  '''############,,,                           
         ,,##''                                '''############,,,,        ,,,,,,###''
      ,#''                                            '''#######################'''  
     '                                                          ''''####''''         
             ,#######,   #######,   ,#######,      ##                                
            ,#'     '#,  ##    ##  ,#'     '#,    #''#        ,####,   ,####,        
            ##       ##  ##   ,#'  ##            #'  '#       #'       #'  '#        
            ##       ##  #######   ##           ,######,      #####,   #    #        
            '#,     ,#'  ##    ##  '#,     ,#' ,#      #,     #,   #   #,  ,#        
             '#######'   ##     ##  '#######'  #'      '#     '####' # '####'        



                #########################################################
                #                        -***-                          #
                #          Department of theory and spectroscopy        #
                #                                                       #
                #                      Frank Neese                      #
                #                                                       #
                #     Directorship, Architecture, Infrastructure        #
                #                    SHARK, DRIVERS                     #
                #        Core code/Algorithms in most modules           #
                #                                                       #
                #        Max Planck Institute fuer Kohlenforschung      #
                #                Kaiser Wilhelm Platz 1                 #
                #                 D-45470 Muelheim/Ruhr                 #
                #                      Germany                          #
                #                                                       #
                #                  All rights reserved                  #
                #                        -***-                          #
                #########################################################


                         Program Version 6.0.1  -  RELEASE   -


 With contributions from (in alphabetic order):
[Max-Planck-Institut fuer Kohlenforschung]                               
  Daniel Aravena         : Magnetic Suceptibility                        
  Michael Atanasov       : Ab Initio Ligand Field Theory (pilot matlab implementation)
  Alexander A. Auer      : GIAO ZORA, VPT2 properties, NMR spectrum      
  Ute Becker             : All parallelization in ORCA, NUMFREQ, NUMCALC 
  Giovanni Bistoni       : ED, misc. LED, open-shell LED, HFLD           
  Martin Brehm           : Molecular dynamics                            
  Dmytro Bykov           : pre 5.0 version of the SCF Hessian            
  Marcos Casanova-Páez   : Triplet and SCS-CIS(D). UHF-(DLPNO)-IP/EA/STEOM-CCSD. UHF-CVS-IP/STEOM-CCSD   
  Vijay G. Chilkuri      : MRCI spin determinant printing, contributions to CSF-ICE 
  Pauline Colinet        : FMM embedding                                 
  Dipayan Datta          : RHF DLPNO-CCSD density                        
  Achintya Kumar Dutta   : EOM-CC, STEOM-CC                              
  Nicolas Foglia         : Exact transition moments, OPA infrastructure, MCD improvements    
  Dmitry Ganyushin       : Spin-Orbit,Spin-Spin,Magnetic field MRCI      
  Miquel Garcia-Rates    : C-PCM and meta-GGA Hessian, CCSD/C-PCM, Gaussian charge scheme 
  Tiago L. C. Gouveia    : GS-ROHF, GS-ROCIS                             
  Yang Guo               : DLPNO-NEVPT2, F12-NEVPT2, CIM, IAO-localization        
  Andreas Hansen         : Spin unrestricted coupled pair/coupled cluster methods 
  Ingolf Harden          : AUTO-CI MPn and infrastructure                
  Benjamin Helmich-Paris : MC-RPA, TRAH-(SCF,CASSCF), AVAS, COSX integrals, SCF dyn. polar. 
  Lee Huntington         : MR-EOM, pCC                                   
  Robert Izsak           : Overlap fitted RIJCOSX, COSX-SCS-MP3, EOM     
  Riya Kayal             : Wick's Theorem for AUTO-CI, AUTO-CI UHF-CCSDT 
  Emily Kempfer          : AUTO-CI, RHF CISDT and CCSDT                  
  Christian Kollmar      : KDIIS, OOCD, Brueckner-CCSD(T), CCSD density, CASPT2, CASPT2-K, improved NEVPT2 
  Axel Koslowski         : Symmetry handling                             
  Simone Kossmann        : meta-GGA functionals, TD-DFT gradient, OOMP2, (MP2 Hessian; deprecated post 5.0) 
  Lucas Lang             : DCDCAS                                        
  Marvin Lechner         : AUTO-CI (C++ implementation), FIC-MRCC        
  Spencer Leger          : CASSCF response                               
  Dagmar Lenk            : GEPOL surface, SMD, ORCA-2-JSON               
  Dimitrios Liakos       : Extrapolation schemes; Compound Job, initial MDCI parallelization 
  Dimitrios Manganas     : Further ROCIS development; embedding schemes. LFT, Crystal Embedding 
  Dimitrios Pantazis     : SARC Basis sets                               
  Anastasios Papadopoulos: AUTO-CI, single reference methods and gradients 
  Taras Petrenko         : pre 6.0 DFT Hessian and TD-DFT gradient, (ASA, deprecated), ECA, 1-Electron XAS/XES, NRVS 
  Peter Pinski           : DLPNO-MP2, DLPNO-MP2 Gradient                 
  Christoph Reimann      : Effective Core Potentials                     
  Marius Retegan         : Local ZFS, SOC                                
  Christoph Riplinger    : Optimizer, TS searches, QM/MM, DLPNO-CCSD(T), (RO)-DLPNO pert. Triples 
  Michael Roemelt        : Original ROCIS implementation                 
  Masaaki Saitow         : Open-shell DLPNO-CCSD energy and density      
  Barbara Sandhoefer     : DKH picture change effects                    
  Kantharuban Sivalingam : CASSCF convergence/infrastructure, NEVPT2 and variants, FIC-MRCI 
  Bernardo de Souza      : ESD, SOC TD-DFT                               
  Georgi L. Stoychev     : AutoAux, RI-MP2 NMR, DLPNO-MP2 response, X2C  
  Van Anh Tran           : RI-MP2 g-tensors                              
  Willem Van den Heuvel  : Paramagnetic NMR                              
  Zikuan Wang            : NOTCH, Electric field optimization            
  Frank Wennmohs         : Technical directorship and infrastructure     
  Hang Xu                : AUTO-CI-Response properties                   
                                                                         
[FACCTs GmbH]                                                            
  Markus Bursch, Miquel Garcia-Rates, Christoph Riplinger, Bernardo de Souza, Georgi L. Stoychev 
                                                                 
  APM, Basis sets (HGBS, AHGBS, def-TZVP (Ac-Lr), def2-XVPD (La-Lu)), CI-OPT, improved COSX, DLPNO-Multilevel,           
  DOCKER, DRACO, updates on ESD, GOAT, IRC, LR-CPCM, MBIS, meta-GGA TD-DFT gradient, ML-optimized integration grids, 
  MM, NACMEs, nearIR, NEB, NEB-TS, NL-DFT gradient (VV10), 2- and 3-layer-ONIOM, interface openCOSMO-RS, QMMM,   
  Crystal-QMMM, SF, symmetry and pop. for TD-DFT, r2SCAN hybrids, SOLVATOR                                   
                                                                         
[Other institutions]                                                     
  V. Asgeirsson          : NEB                                           
  Christoph Bannwarth    : sTDA-DFT, sTD-DFT, PBEh-3c, B97-3c, D3        
  Sebastian Ehlert       : rSCAN, r2SCAN, r2SCAN-3c, D4, dhf basis sets  
  Marvin Friede          : D4 for Fr, Ra, Ac-Lr                          
  Lars Goerigk           : TD-DFT with DH, B97 family of functionals     
  Stefan Grimme          : VdW corrections, initial TS optimization, DFT functionals, gCP, sTDA/sTD-DF 
  Waldemar Hujo          : DFT-NL                                        
  H. Jonsson             : NEB                                           
  Holger Kruse           : gCP                                           
  Marcel Mueller         : wB97X-3c, vDZP basis set                      
  Hagen Neugebauer       : wr2SCAN                                       
  Tobias Risthaus        : range-separated hybrid DFT                    
  Lukas Wittmann         : regularized MP2, r2SCAN double-hybrids, wr2SCAN        
                                                                         
We gratefully acknowledge several colleagues who have allowed us to      
interface, adapt or use parts of their codes:                            
  Ed Valeev, F. Pavosevic, A. Kumar             : LibInt (2-el integral package), F12 methods 
  Garnet Chan, S. Sharma, J. Yang, R. Olivares  : DMRG                   
  Ulf Ekstrom                                   : XCFun DFT Library      
  Mihaly Kallay                                 : mrcc  (arbitrary order and MRCC methods)
  Frank Weinhold                                : gennbo (NPA and NBO analysis)           
  Simon Mueller                                 : openCOSMO-RS                            
  Christopher J. Cramer and Donald G. Truhlar   : smd solvation model                     
  S Lehtola, MJT Oliveira, MAL Marques          : LibXC Library                           
  Liviu Ungur et al                             : ANISO software                          


 Your calculation uses the libint2 library for the computation of 2-el integrals
 For citations please refer to: http://libint.valeyev.net

 Your ORCA version has been built with support for libXC version: 6.2.2
 For citations please refer to: https://libxc.gitlab.io

 This ORCA versions uses:
   CBLAS   interface :  Fast vector & matrix operations
   LAPACKE interface :  Fast linear algebra routines
   SCALAPACK package :  Parallel linear algebra routines
   Shared memory     :  Shared parallel matrices
   BLAS/LAPACK       :  OpenBLAS 0.3.27  USE64BITINT DYNAMIC_ARCH NO_AFFINITY SkylakeX SINGLE_THREADED
        Core in use  :  SkylakeX
   Copyright (c) 2011-2014, The OpenBLAS Project


Your calculation utilizes the atom-pairwise dispersion correction
with the Becke-Johnson damping scheme (D3BJ)


Warning: RI is on but no J-basis has been assigned. Assigning Def2/J (nothing to worry about!)
================================================================================

----- Orbital basis set information -----
Your calculation utilizes the basis: def2-SVP
   F. Weigend and R. Ahlrichs, Phys. Chem. Chem. Phys. 7, 3297 (2005).

----- AuxJ basis set information -----
Your calculation utilizes the auxiliary basis: def2/J
   F. Weigend, Phys. Chem. Chem. Phys. 8, 1057 (2006).

================================================================================
                                        WARNINGS
                       Please study these warnings very carefully!
================================================================================


WARNING: Geometry Optimization
  ===> : Switching off AutoStart
         For restart on a previous wavefunction, please use MOREAD

================================================================================
                                       INPUT FILE
================================================================================
NAME = water_2.inp
|  1> ! B3LYP def2-SVP OPT TightSCF ALLPOP KEEPDENS D3BJ
|  2> 
|  3> %pal
|  4> nprocs 4
|  5> end
|  6> 
|  7> * xyz 0 1
|  8> O          0.94900       -0.03600       -0.06349
|  9> H          1.91688       -0.05890       -0.10388
| 10> H          0.67015       -0.49371       -0.87076
| 11> *
| 12> 
| 13>                          ****END OF INPUT****
================================================================================

                       *****************************
                       * Geometry Optimization Run *
                       *****************************

Geometry optimization settings:
Update method            Update   .... BFGS
Choice of coordinates    CoordSys .... (2022) Redundant Internals
Initial Hessian          InHess   .... Almloef's Model
Max. no of cycles        MaxIter  .... 50

Convergence Tolerances:
Energy Change            TolE     ....  5.0000e-06 Eh
Max. Gradient            TolMAXG  ....  3.0000e-04 Eh/bohr
RMS Gradient             TolRMSG  ....  1.0000e-04 Eh/bohr
Max. Displacement        TolMAXD  ....  4.0000e-03 bohr
RMS Displacement         TolRMSD  ....  2.0000e-03 bohr
Strict Convergence                .... False

------------------------------------------------------------------------------
                        ORCA OPTIMIZATION COORDINATE SETUP
------------------------------------------------------------------------------

The optimization will be done in redundant internal coordinates (2022)
Making redundant internal coordinates   ...  (2022 redundants) done
Evaluating the initial hessian          ...  (Almloef) done
Evaluating the coordinates              ...  done
Calculating the B-matrix                .... done
Calculating the G-matrix                .... done
Diagonalizing the G-matrix              .... done
The first mode is                       ....    0
The number of degrees of freedom        ....    3

    -----------------------------------------------------------------
                    Redundant Internal Coordinates


    -----------------------------------------------------------------
         Definition                    Initial Value    Approx d2E/dq
    -----------------------------------------------------------------
      1. B(H   1,O   0)                  0.9690         0.503059   
      2. B(H   2,O   0)                  0.9690         0.503066   
      3. A(H   1,O   0,H   2)          103.9783         0.318378   
    -----------------------------------------------------------------

Number of atoms                         .... 3
Number of degrees of freedom            .... 3


         *************************************************************
         *                GEOMETRY OPTIMIZATION CYCLE   1            *
         *************************************************************
---------------------------------
CARTESIAN COORDINATES (ANGSTROEM)
---------------------------------
  O      0.949000   -0.036000   -0.063490
  H      1.916880   -0.058900   -0.103880
  H      0.670150   -0.493710   -0.870760

----------------------------
CARTESIAN COORDINATES (A.U.)
----------------------------
  NO LB      ZA    FRAG     MASS         X           Y           Z
   0 O     8.0000    0    15.999    1.793350   -0.068030   -0.119979
   1 H     1.0000    0     1.008    3.622378   -0.111305   -0.196305
   2 H     1.0000    0     1.008    1.266400   -0.932977   -1.645498

--------------------------------
INTERNAL COORDINATES (ANGSTROEM)
--------------------------------
 O      0   0   0     0.000000000000     0.00000000     0.00000000
 H      1   0   0     0.968993011585     0.00000000     0.00000000
 H      1   2   0     0.968989483689   103.97830551     0.00000000

---------------------------
INTERNAL COORDINATES (A.U.)
---------------------------
 O      0   0   0     0.000000000000     0.00000000     0.00000000
 H      1   0   0     1.831131417579     0.00000000     0.00000000
 H      1   2   0     1.831124750822   103.97830551     0.00000000

---------------------
BASIS SET INFORMATION
---------------------
There are 2 groups of distinct atoms

 Group   1 Type O   : 7s4p1d contracted to 3s2p1d pattern {511/31/1}
 Group   2 Type H   : 4s1p contracted to 2s1p pattern {31/1}

Atom   0O    basis set group =>   1
Atom   1H    basis set group =>   2
Atom   2H    basis set group =>   2
---------------------------------
AUXILIARY/J BASIS SET INFORMATION
---------------------------------
There are 2 groups of distinct atoms

 Group   1 Type O   : 12s5p4d2f1g contracted to 6s4p3d1f1g pattern {711111/2111/211/2/1}
 Group   2 Type H   : 5s2p1d contracted to 3s1p1d pattern {311/2/1}

Atom   0O    basis set group =>   1
Atom   1H    basis set group =>   2
Atom   2H    basis set group =>   2
--------------------------------------------------------------------------
By default, for Open MPI 4.0 and later, infiniband ports on a device
are not used by default.  The intent is to use UCX for these devices.
You can override this policy by setting the btl_openib_allow_ib MCA parameter
to true.

  Local host:              psid00
  Local adapter:           mlx5_0
  Local port:              1

--------------------------------------------------------------------------
--------------------------------------------------------------------------
WARNING: There was an error initializing an OpenFabrics device.

  Local host:   psid00
  Local device: mlx5_0
--------------------------------------------------------------------------


           ************************************************************
           *        Program running with 4 parallel MPI-processes     *
           *              working on a common directory               *
           ************************************************************
------------------------------------------------------------------------------
                             ORCA STARTUP CALCULATIONS
                           -- RI-GTO INTEGRALS CHOSEN --
------------------------------------------------------------------------------
------------------------------------------------------------------------------
                   ___                                                        
                  /   \      - P O W E R E D   B Y -                         
                 /     \                                                     
                 |  |  |   _    _      __       _____    __    __             
                 |  |  |  | |  | |    /  \     |  _  \  |  |  /  |          
                  \  \/   | |  | |   /    \    | | | |  |  | /  /          
                 / \  \   | |__| |  /  /\  \   | |_| |  |  |/  /          
                |  |  |   |  __  | /  /__\  \  |    /   |      \           
                |  |  |   | |  | | |   __   |  |    \   |  |\   \          
                \     /   | |  | | |  |  |  |  | |\  \  |  | \   \       
                 \___/    |_|  |_| |__|  |__|  |_| \__\ |__|  \__/        
                                                                              
                      - O R C A' S   B I G   F R I E N D -                    
                                      &                                       
                       - I N T E G R A L  F E E D E R -                       
                                                                              
 v1 FN, 2020, v2 2021, v3 2022-2024                                           
------------------------------------------------------------------------------


----------------------
SHARK INTEGRAL PACKAGE
----------------------

Number of atoms                             ...      3
Number of basis functions                   ...     24
Number of shells                            ...     12
Maximum angular momentum                    ...      2
Integral batch strategy                     ... SHARK/LIBINT Hybrid
RI-J (if used) integral strategy            ... SPLIT-RIJ (Revised 2003 algorithm where possible)
Printlevel                                  ...      1
Contraction scheme used                     ... SEGMENTED contraction
Prescreening option                         ... SCHWARTZ
   Thresh                                   ... 2.500e-11
   Tcut                                     ... 2.500e-12
   Tpresel                                  ... 2.500e-12 
Coulomb Range Separation                    ... NOT USED
Exchange Range Separation                   ... NOT USED
Multipole approximations                    ... NOT USED
Finite Nucleus Model                        ... NOT USED
CABS basis                                  ... NOT available
Auxiliary Coulomb fitting basis             ... AVAILABLE
   # of basis functions in Aux-J            ...     71
   # of shells in Aux-J                     ...     25
   Maximum angular momentum in Aux-J        ...      4
Auxiliary J/K fitting basis                 ... NOT available
Auxiliary Correlation fitting basis         ... NOT available
Auxiliary 'external' fitting basis          ... NOT available

Checking pre-screening integrals            ... done (  0.0 sec) Dimension = 12
Check shell pair data                       ... done (  0.0 sec)
Shell pair information
Shell pair cut-off parameter TPreSel        ...   2.5e-12
Total number of shell pairs                 ...        78
Shell pairs after pre-screening             ...        78
Total number of primitive shell pairs       ...       272
Primitive shell pairs kept                  ...       265
          la=0 lb=0:     28 shell pairs
          la=1 lb=0:     28 shell pairs
          la=1 lb=1:     10 shell pairs
          la=2 lb=0:      7 shell pairs
          la=2 lb=1:      4 shell pairs
          la=2 lb=2:      1 shell pairs

Calculating one electron integrals          ... done (  0.0 sec)
Calculating RI/J V-Matrix + Cholesky decomp.... done (  0.0 sec)
Calculating Nuclear repulsion               ... done (  0.0 sec) ENN=      9.084347036453 Eh

Diagonalization of the overlap matrix:
Smallest eigenvalue                        ... 3.830e-02
Time for diagonalization                   ...    0.000 sec
Threshold for overlap eigenvalues          ... 1.000e-07
Number of eigenvalues below threshold      ... 0
Time for construction of square roots      ...    0.000 sec
Total time needed                          ...    0.001 sec

-------------------
DFT GRID GENERATION
-------------------

General Integration Accuracy     IntAcc      ... 4.388
Radial Grid Type                 RadialGrid  ... OptM3 with GC (2021)
Angular Grid (max. ang.)         AngularGrid ... 4 (Lebedev-302)
Angular grid pruning method      GridPruning ... 4 (adaptive)
Weight generation scheme         WeightScheme... mBecke (2022)
Basis function cutoff            BFCut       ... 1.0000e-11
Integration weight cutoff        WCut        ... 1.0000e-14
Partially contracted basis set               ... off
Rotationally invariant grid construction     ... off
Angular grids for H and He will be reduced by one unit

Total number of grid points                  ...    12754
Total number of batches                      ...      201
Average number of points per batch           ...       63
Average number of grid points per atom       ...     4251

--------------------
COSX GRID GENERATION
--------------------

GRIDX 1
-------
General Integration Accuracy     IntAcc      ... 3.816
Radial Grid Type                 RadialGrid  ... OptM3 with GC (2021)
Angular Grid (max. ang.)         AngularGrid ... 1 (Lebedev-50)
Angular grid pruning method      GridPruning ... 4 (adaptive)
Weight generation scheme         WeightScheme... mBecke (2022)
Basis function cutoff            BFCut       ... 1.0000e-11
Integration weight cutoff        WCut        ... 1.0000e-14
Partially contracted basis set               ... on
Rotationally invariant grid construction     ... off
Angular grids for H and He will be reduced by one unit

Total number of grid points                  ...     1659
Total number of batches                      ...       14
Average number of points per batch           ...      118
Average number of grid points per atom       ...      553
UseSFitting                                  ... on

GRIDX 2
-------
General Integration Accuracy     IntAcc      ... 4.020
Radial Grid Type                 RadialGrid  ... OptM3 with GC (2021)
Angular Grid (max. ang.)         AngularGrid ... 2 (Lebedev-110)
Angular grid pruning method      GridPruning ... 4 (adaptive)
Weight generation scheme         WeightScheme... mBecke (2022)
Basis function cutoff            BFCut       ... 1.0000e-11
Integration weight cutoff        WCut        ... 1.0000e-14
Partially contracted basis set               ... on
Rotationally invariant grid construction     ... off
Angular grids for H and He will be reduced by one unit

Total number of grid points                  ...     3509
Total number of batches                      ...       30
Average number of points per batch           ...      116
Average number of grid points per atom       ...     1170
UseSFitting                                  ... on

GRIDX 3
-------
General Integration Accuracy     IntAcc      ... 4.338
Radial Grid Type                 RadialGrid  ... OptM3 with GC (2021)
Angular Grid (max. ang.)         AngularGrid ... 3 (Lebedev-194)
Angular grid pruning method      GridPruning ... 4 (adaptive)
Weight generation scheme         WeightScheme... mBecke (2022)
Basis function cutoff            BFCut       ... 1.0000e-11
Integration weight cutoff        WCut        ... 1.0000e-14
Partially contracted basis set               ... on
Rotationally invariant grid construction     ... off
Angular grids for H and He will be reduced by one unit

Total number of grid points                  ...     7777
Total number of batches                      ...       62
Average number of points per batch           ...      125
Average number of grid points per atom       ...     2592
UseSFitting                                  ... on
Initializing property integral containers    ... done (  0.0 sec)

SHARK setup successfully completed in   0.2 seconds

Maximum memory used throughout the entire STARTUP-calculation: 8.7 MB
[psid00:126072] 3 more processes have sent help message help-mpi-btl-openib.txt / ib port not selected
[psid00:126072] Set MCA parameter "orte_base_help_aggregate" to 0 to see all help / error messages
[psid00:126072] 3 more processes have sent help message help-mpi-btl-openib.txt / error in device init
--------------------------------------------------------------------------
By default, for Open MPI 4.0 and later, infiniband ports on a device
are not used by default.  The intent is to use UCX for these devices.
You can override this policy by setting the btl_openib_allow_ib MCA parameter
to true.

  Local host:              psid00
  Local adapter:           mlx5_0
  Local port:              1

--------------------------------------------------------------------------
--------------------------------------------------------------------------
WARNING: There was an error initializing an OpenFabrics device.

  Local host:   psid00
  Local device: mlx5_0
--------------------------------------------------------------------------


           ************************************************************
           *        Program running with 4 parallel MPI-processes     *
           *              working on a common directory               *
           ************************************************************
-------------------------------------------------------------------------------
                                 ORCA GUESS
                   Start orbitals & Density for SCF / CASSCF
-------------------------------------------------------------------------------

------------
SCF SETTINGS
------------
Hamiltonian:
 Density Functional     Method          .... DFT(GTOs)
 Exchange Functional    Exchange        .... B88
   X-Alpha parameter    XAlpha          ....  0.666667
   Becke's b parameter  XBeta           ....  0.004200
 Correlation Functional Correlation     .... LYP
 LDA part of GGA corr.  LDAOpt          .... VWN-5
 Gradients option       PostSCFGGA      .... off
 Hybrid DFT is turned on
   Fraction HF Exchange ScalHFX         ....  0.200000
   Scaling of DF-GGA-X  ScalDFX         ....  0.720000
   Scaling of DF-GGA-C  ScalDFC         ....  0.810000
   Scaling of DF-LDA-C  ScalLDAC        ....  1.000000
   Perturbative correction              ....  0.000000
   NL short-range parameter             ....  4.800000
 RI-approximation to the Coulomb term is turned on
   Number of AuxJ basis functions       .... 71
   RIJ-COSX (HFX calculated with COS-X)).... on


General Settings:
 Integral files         IntName         .... water_2
 Hartree-Fock type      HFTyp           .... RHF
 Total Charge           Charge          ....    0
 Multiplicity           Mult            ....    1
 Number of Electrons    NEL             ....   10
 Basis Dimension        Dim             ....   24
 Nuclear Repulsion      ENuc            ....      9.0843470365 Eh

Convergence Acceleration:
 AO-DIIS                CNVDIIS         .... on
   Start iteration      DIISMaxIt       ....    12
   Startup error        DIISStart       ....  0.200000
   # of expansion vecs  DIISMaxEq       ....     5
   Bias factor          DIISBfac        ....   1.050
   Max. coefficient     DIISMaxC        ....  10.000
 MO-DIIS                CNVKDIIS        .... off
 Trust-Rad. Augm. Hess. CNVTRAH         .... auto
   Auto Start mean grad. ratio tolernc. ....  1.125000
   Auto Start start iteration           ....    50
   Auto Start num. interpolation iter.  ....    10
   Max. Number of Micro iterations      ....    24
   Max. Number of Macro iterations      .... Maxiter - #DIIS iter
   Number of Davidson start vectors     ....     2
   Converg. threshold    (grad. norm)   ....   1.000e-05
   Grad. Scal. Fac. for Micro threshold ....   0.100
   Minimum threshold for Micro iter.    ....   1.000e-02
   NR start threshold (gradient norm)   ....   1.000e-04
   Initial trust radius                 ....   0.400
   Minimum AH scaling param. (alpha)    ....   1.000
   Maximum AH scaling param. (alpha)    .... 1000.000
   Quad. conv. algorithm                .... NR
   White noise on init. David. guess    .... on
   Maximum white noise                  ....   0.010
   Pseudo random numbers                .... off
   Inactive MOs                         .... canonical
   Orbital update algorithm             .... Taylor
   Preconditioner                       .... Diag
   Full preconditioner red. dimension   ....   250
 SOSCF                  CNVSOSCF        .... on
   Start iteration      SOSCFMaxIt      ....   150
   Startup grad/error   SOSCFStart      ....  0.003300
   Hessian update       SOSCFHessUp     .... L-BFGS
 Level Shifting         CNVShift        .... on
   Level shift para.    LevelShift      ....    0.2500
   Turn off err/grad.   ShiftErr        ....    0.0010
 Zerner damping         CNVZerner       .... off
 Static damping         CNVDamp         .... on
   Fraction old density DampFac         ....    0.7000
   Max. Damping (<1)    DampMax         ....    0.9800
   Min. Damping (>=0)   DampMin         ....    0.0000
   Turn off err/grad.   DampErr         ....    0.1000

SCF Procedure:
 Maximum # iterations   MaxIter         ....   125
 SCF integral mode      SCFMode         .... Direct
   Integral package                     .... SHARK and LIBINT hybrid scheme
 Reset frequency        DirectResetFreq ....    20
 Integral Threshold     Thresh          ....  2.500e-11 Eh
 Primitive CutOff       TCut            ....  2.500e-12 Eh

Convergence Tolerance:
 Convergence Check Mode ConvCheckMode   .... Total+1el-Energy
 Convergence forced     ConvForced      .... 0
 Energy Change          TolE            ....  1.000e-08 Eh
 1-El. energy change                    ....  1.000e-05 Eh
 Orbital Gradient       TolG            ....  1.000e-05
 Orbital Rotation angle TolX            ....  1.000e-05
 DIIS Error             TolErr          ....  5.000e-07

------------------------------
INITIAL GUESS: MODEL POTENTIAL
------------------------------
Loading Hartree-Fock densities                     ... done
Calculating cut-offs                               ... done
Initializing the effective Hamiltonian             ... done
Setting up the integral package (SHARK)            ... done
Starting the Coulomb interaction                   ... done (   0.0 sec)
Making the grid                                    ... done (   0.0 sec)
Mapping shells                                     ... done
Starting the XC term evaluation                    ... done (   0.0 sec)
  promolecular density results
     # of electrons  =      9.999000483
     EX              =     -8.778667572
     EC              =     -0.334366503
     EX+EC           =     -9.113034075
Transforming the Hamiltonian                       ... done (   0.0 sec)
Diagonalizing the Hamiltonian                      ... done (   0.0 sec)
Back transforming the eigenvectors                 ... done (   0.0 sec)
Now organizing SCF variables                       ... done
                      ------------------
                      INITIAL GUESS DONE (   0.0 sec)
                      ------------------
             **** ENERGY FILE WAS UPDATED (water_2.en.tmp) ****
Finished Guess after   0.8 sec
Maximum memory used throughout the entire GUESS-calculation: 5.4 MB
[psid00:126088] 3 more processes have sent help message help-mpi-btl-openib.txt / ib port not selected
[psid00:126088] Set MCA parameter "orte_base_help_aggregate" to 0 to see all help / error messages
[psid00:126088] 3 more processes have sent help message help-mpi-btl-openib.txt / error in device init
--------------------------------------------------------------------------
By default, for Open MPI 4.0 and later, infiniband ports on a device
are not used by default.  The intent is to use UCX for these devices.
You can override this policy by setting the btl_openib_allow_ib MCA parameter
to true.

  Local host:              psid00
  Local adapter:           mlx5_0
  Local port:              1

--------------------------------------------------------------------------
--------------------------------------------------------------------------
WARNING: There was an error initializing an OpenFabrics device.

  Local host:   psid00
  Local device: mlx5_0
--------------------------------------------------------------------------


           ************************************************************
           *        Program running with 4 parallel MPI-processes     *
           *              working on a common directory               *
           ************************************************************

-------------------------------------------------------------------------------------------
                                      ORCA LEAN-SCF
                              memory conserving SCF solver
-------------------------------------------------------------------------------------------

----------------------------------------D-I-I-S--------------------------------------------
Iteration    Energy (Eh)           Delta-E    RMSDP     MaxDP     DIISErr   Damp  Time(sec)
-------------------------------------------------------------------------------------------
               ***  Starting incremental Fock matrix formation  ***
    1    -76.2267146085192167     0.00e+00  1.31e-02  8.74e-02  3.04e-01  0.700   0.1
    2    -76.2732184008297338    -4.65e-02  7.41e-03  4.85e-02  1.29e-01  0.700   0.1
                               ***Turning on AO-DIIS***
    3    -76.2889312770151378    -1.57e-02  1.89e-03  1.24e-02  3.32e-02  0.700   0.0
    4    -76.2987568240742462    -9.83e-03  2.40e-03  1.68e-02  1.30e-02  0.000   0.0
    5    -76.3212378174275869    -2.25e-02  5.54e-04  3.21e-03  5.42e-03  0.000   0.0
                              *** Initializing SOSCF ***
---------------------------------------S-O-S-C-F--------------------------------------
Iteration    Energy (Eh)           Delta-E    RMSDP     MaxDP     MaxGrad    Time(sec)
--------------------------------------------------------------------------------------
    6    -76.3212790798307879    -4.13e-05  1.66e-04  1.13e-03  9.05e-04     0.0
               *** Restarting incremental Fock matrix formation ***
    7    -76.3212268766366861     5.22e-05  1.05e-04  8.59e-04  2.27e-04     0.1
    8    -76.3212271078120637    -2.31e-07  3.25e-05  2.41e-04  1.51e-04     0.0
    9    -76.3212271514883156    -4.37e-08  1.95e-05  1.07e-04  8.31e-05     0.0
   10    -76.3212271766022212    -2.51e-08  1.22e-06  6.83e-06  4.07e-06     0.0
   11    -76.3212271765796260     2.26e-11  2.34e-07  2.08e-06  1.28e-06     0.0
                 **** Energy Check signals convergence ****

               *****************************************************
               *                     SUCCESS                       *
               *           SCF CONVERGED AFTER  11 CYCLES          *
               *****************************************************

Recomputing exchange energy using gridx3       ... done (    0.033 sec)
Old exchange energy                            :     -1.789497507 Eh
New exchange energy                            :     -1.789509649 Eh
Exchange energy change after final integration :     -0.000012142 Eh
Total energy after final integration           :    -76.321239318 Eh
             **** ENERGY FILE WAS UPDATED (water_2.en.tmp) ****

----------------
TOTAL SCF ENERGY
----------------

Total Energy       :        -76.32123931824107 Eh           -2076.80650 eV

Components:
Nuclear Repulsion  :          9.08434703645301 Eh             247.19765 eV
Electronic Energy  :        -85.40557421303264 Eh           -2324.00382 eV
One Electron Energy:       -122.92179859043185 Eh           -3344.87219 eV
Two Electron Energy:         37.51622437739921 Eh            1020.86837 eV

Virial components:
Potential Energy   :       -152.14531527554701 Eh           -4140.08451 eV
Kinetic Energy     :         75.82407595730594 Eh            2063.27800 eV
Virial Ratio       :          2.00655680078733

DFT components:
N(Alpha)           :        4.999999415508 electrons
N(Beta)            :        4.999999415508 electrons
N(Total)           :        9.999998831015 electrons
E(X)               :       -7.120608455381 Eh       
E(C)               :       -0.402123425719 Eh       
E(XC)              :       -7.522731881100 Eh       

---------------
SCF CONVERGENCE
---------------

  Last Energy change         ...   -2.2595e-11  Tolerance :   1.0000e-08
  Last MAX-Density change    ...    2.0775e-06  Tolerance :   1.0000e-07
  Last RMS-Density change    ...    2.3427e-07  Tolerance :   5.0000e-09
  Last DIIS Error            ...    9.0468e-04  Tolerance :   5.0000e-07
  Last Orbital Gradient      ...    1.2792e-06  Tolerance :   1.0000e-05
  Last Orbital Rotation      ...    6.8426e-07  Tolerance :   1.0000e-05


----------------
ORBITAL ENERGIES
----------------

  NO   OCC          E(Eh)            E(eV) 
   0   2.0000     -19.115993      -520.1726 
   1   2.0000      -0.974484       -26.5171 
   2   2.0000      -0.508799       -13.8451 
   3   2.0000      -0.362459        -9.8630 
   4   2.0000      -0.287675        -7.8280 
   5   0.0000       0.047446         1.2911 
   6   0.0000       0.126143         3.4325 
   7   0.0000       0.559620        15.2280 
   8   0.0000       0.618894        16.8410 
   9   0.0000       0.920160        25.0388 
  10   0.0000       0.923790        25.1376 
  11   0.0000       1.009717        27.4758 
  12   0.0000       1.096493        29.8371 
  13   0.0000       1.348170        36.6856 
  14   0.0000       1.410763        38.3888 
  15   0.0000       1.550135        42.1813 
*Only the first 10 virtual orbitals were printed.

                    ********************************
                    * MULLIKEN POPULATION ANALYSIS *
                    ********************************

-----------------------
MULLIKEN ATOMIC CHARGES
-----------------------
   0 O :   -0.298011
   1 H :    0.149024
   2 H :    0.148987
Sum of atomic charges:   -0.0000000

--------------------------------
MULLIKEN REDUCED ORBITAL CHARGES
--------------------------------
  0 O s       :     3.687660  s :     3.687660
      pz      :     1.520712  p :     4.599617
      px      :     1.260308
      py      :     1.818598
      dz2     :     0.003328  d :     0.010734
      dxz     :     0.000932
      dyz     :     0.002656
      dx2y2   :     0.003247
      dxy     :     0.000571

  1 H s       :     0.780928  s :     0.780928
      pz      :     0.016858  p :     0.070048
      px      :     0.034499
      py      :     0.018690

  2 H s       :     0.780964  s :     0.780964
      pz      :     0.029151  p :     0.070049
      px      :     0.018256
      py      :     0.022642



                     *******************************
                     * LOEWDIN POPULATION ANALYSIS *
                     *******************************

----------------------
LOEWDIN ATOMIC CHARGES
----------------------
   0 O :   -0.152397
   1 H :    0.076203
   2 H :    0.076195

-------------------------------
LOEWDIN REDUCED ORBITAL CHARGES
-------------------------------
  0 O s       :     3.440583  s :     3.440583
      pz      :     1.562893  p :     4.691971
      px      :     1.342010
      py      :     1.787069
      dz2     :     0.006047  d :     0.019843
      dxz     :     0.001333
      dyz     :     0.004831
      dx2y2   :     0.007119
      dxy     :     0.000513

  1 H s       :     0.749874  s :     0.749874
      pz      :     0.038189  p :     0.173924
      px      :     0.087368
      py      :     0.048367

  2 H s       :     0.749882  s :     0.749882
      pz      :     0.079214  p :     0.173923
      px      :     0.033157
      py      :     0.061552



                      *****************************
                      * MAYER POPULATION ANALYSIS *
                      *****************************

  NA   - Mulliken gross atomic population
  ZA   - Total nuclear charge
  QA   - Mulliken gross atomic charge
  VA   - Mayer's total valence
  BVA  - Mayer's bonded valence
  FA   - Mayer's free valence

  ATOM       NA         ZA         QA         VA         BVA        FA
  0 O      8.2980     8.0000    -0.2980     2.0139     2.0139    -0.0000
  1 H      0.8510     1.0000     0.1490     1.0125     1.0125    -0.0000
  2 H      0.8510     1.0000     0.1490     1.0125     1.0125    -0.0000

  Mayer bond orders larger than 0.100000
B(  0-O ,  1-H ) :   1.0069 B(  0-O ,  2-H ) :   1.0069 

Environment variable NBOEXE for nbo6.exe or nbo5.exe not set! Skipping NBO-Analysis

-------
TIMINGS
-------

Total SCF time: 0 days 0 hours 0 min 0 sec 

Total time                  ....       0.768 sec
Sum of individual times     ....       0.754 sec  ( 98.1%)

SCF preparation             ....       0.216 sec  ( 28.1%)
Fock matrix formation       ....       0.490 sec  ( 63.8%)
  Startup                   ....       0.004 sec  (  0.8% of F)
  Split-RI-J                ....       0.019 sec  (  3.9% of F)
  Chain of spheres X        ....       0.349 sec  ( 71.4% of F)
  XC integration            ....       0.104 sec  ( 21.3% of F)
    XC Preparation          ....       0.000 sec  (  0.0% of XC)
    Basis function eval.    ....       0.036 sec  ( 34.4% of XC)
    Density eval.           ....       0.007 sec  (  7.2% of XC)
    XC-Functional eval.     ....       0.035 sec  ( 33.8% of XC)
    XC-Potential eval.      ....       0.010 sec  (  9.4% of XC)
Diagonalization             ....       0.000 sec  (  0.0%)
Density matrix formation    ....       0.012 sec  (  1.6%)
Total Energy calculation    ....       0.005 sec  (  0.6%)
Population analysis         ....       0.003 sec  (  0.4%)
Orbital Transformation      ....       0.003 sec  (  0.4%)
Orbital Orthonormalization  ....       0.000 sec  (  0.0%)
DIIS solution               ....       0.017 sec  (  2.2%)
SOSCF solution              ....       0.008 sec  (  1.1%)
Finished LeanSCF after   0.8 sec

Maximum memory used throughout the entire LEANSCF-calculation: 4.9 MB
[psid00:126199] 3 more processes have sent help message help-mpi-btl-openib.txt / ib port not selected
[psid00:126199] Set MCA parameter "orte_base_help_aggregate" to 0 to see all help / error messages
[psid00:126199] 3 more processes have sent help message help-mpi-btl-openib.txt / error in device init


-------------------------------------------------------------------------------
                          DFT DISPERSION CORRECTION                            
                                                                               
                              DFTD3 V3.1  Rev 1                                
                          USING Becke-Johnson damping                          
-------------------------------------------------------------------------------
The B3LYP functional is recognized
Active option DFTDOPT                   ...         4   

molecular C6(AA) [au] = 44.538416 


            DFT-D V3
 parameters
 s6 scaling factor         :     1.0000 
 a1 scaling factor         :     0.3981 
 s8 scaling factor         :     1.9889 
 a2 scaling factor         :     4.4211 
 ad hoc parameters k1-k3   :    16.0000     1.3333    -4.0000 

 Edisp/kcal,au: -0.360128194941  -0.000573900748 
 E6   /kcal   :  -0.196931820 
 E8   /kcal   :  -0.163196375 
 % E8         :  45.316189510 

-------------------------   ----------------
Dispersion correction           -0.000573901
-------------------------   ----------------


-------------------------   --------------------
FINAL SINGLE POINT ENERGY       -76.321813218989
-------------------------   --------------------

--------------------------------------------------------------------------
By default, for Open MPI 4.0 and later, infiniband ports on a device
are not used by default.  The intent is to use UCX for these devices.
You can override this policy by setting the btl_openib_allow_ib MCA parameter
to true.

  Local host:              psid00
  Local adapter:           mlx5_0
  Local port:              1

--------------------------------------------------------------------------
--------------------------------------------------------------------------
WARNING: There was an error initializing an OpenFabrics device.

  Local host:   psid00
  Local device: mlx5_0
--------------------------------------------------------------------------


           ************************************************************
           *        Program running with 4 parallel MPI-processes     *
           *              working on a common directory               *
           ************************************************************
------------------------------------------------------------------------------
                         ORCA SCF GRADIENT CALCULATION
------------------------------------------------------------------------------

Nuc. rep. gradient        (SHARK) ... done (  0.0 sec)
HCore & Overlap gradient  (SHARK) ... done (  0.0 sec)
Split-RIJ-J gradient      (SHARK) ... done (  0.1 sec)
COSX-gradient                     ... done (  0.1 sec)
XC gradient                       ... done (  0.0 sec)
Dispersion correction             ... done (  0.0 sec)

-------------------
DISPERSION GRADIENT
-------------------

   1   O   :    0.000001132   -0.000000789   -0.000001392
   2   H   :    0.000000835    0.000000883    0.000001558
   3   H   :   -0.000001967   -0.000000094   -0.000000166

Difference to translation invariance:
           :    0.0000000000    0.0000000000    0.0000000000

Difference to rotation invariance:
           :    0.0000000000   -0.0000000000   -0.0000000000

Norm of the Dispersion gradient    ...    0.0000034137
RMS gradient                       ...    0.0000011379
MAX gradient                       ...    0.0000019669

------------------
CARTESIAN GRADIENT
------------------

   1   O   :   -0.000450476    0.000303075    0.000507980
   2   H   :    0.002596124    0.000690621    0.001203393
   3   H   :   -0.002145648   -0.000993696   -0.001711372

Difference to translation invariance:
           :   -0.0000000000    0.0000000001    0.0000000001

Difference to rotation invariance:
           :   -0.0000350211   -0.0000277713    0.0000432693

Norm of the Cartesian gradient     ...    0.0042116302
RMS gradient                       ...    0.0014038767
MAX gradient                       ...    0.0025961239

-------
TIMINGS
-------

Total SCF gradient time     ....        0.264 sec

Densities                   ....       0.000 sec  (  0.0%)
One electron gradient       ....       0.003 sec  (  1.1%)
RI-J Coulomb gradient       ....       0.095 sec  ( 36.1%)
COSX gradient               ....       0.097 sec  ( 36.5%)
XC gradient                 ....       0.020 sec  (  7.5%)

Maximum memory used throughout the entire SCFGRAD-calculation: 25.2 MB
[psid00:126309] 3 more processes have sent help message help-mpi-btl-openib.txt / ib port not selected
[psid00:126309] Set MCA parameter "orte_base_help_aggregate" to 0 to see all help / error messages
[psid00:126309] 3 more processes have sent help message help-mpi-btl-openib.txt / error in device init
------------------------------------------------------------------------------
                         ORCA GEOMETRY RELAXATION STEP
------------------------------------------------------------------------------

Reading the OPT-File                    .... done
Getting information on internals        .... done
Copying old internal coords+grads       .... done
Making the new internal coordinates     .... (2022 redundants) done
Validating the new internal coordinates .... (2022 redundants) done
Calculating the B-matrix                .... done
Calculating the G,G- and P matrices     .... done
Transforming gradient to internals      .... done
Projecting the internal gradient        .... done
Number of atoms                         ....   3
Number of internal coordinates          ....   3
Current Energy                          ....   -76.321813219 Eh
Current gradient norm                   ....     0.004211630 Eh/bohr
Maximum allowed component of the step   ....  0.300
Current trust radius                    ....  0.300
Evaluating the initial hessian          ....  (Almloef) done
Projecting the Hessian                  .... done
Forming the augmented Hessian           .... done
Diagonalizing the augmented Hessian     .... done
Last element of RFO vector              ....  0.999937829
Lowest eigenvalues of augmented Hessian:
 -0.000048862  0.318401985  0.503061925
Length of the computed step             ....  0.011151422
The final length of the internal step   ....  0.011151422
Converting the step to Cartesian space:
 Initial RMS(Int)=    0.0064382765
Transforming coordinates:
 Iter   0:  RMS(Cart)=    0.0042359218 RMS(Int)=    0.0064399855
done
Storing new coordinates                 .... done

                                .--------------------.
          ----------------------|Geometry convergence|-------------------------
          Item                value                   Tolerance       Converged
          ---------------------------------------------------------------------
          RMS gradient        0.0025961521            0.0001000000      NO
          MAX gradient        0.0027427473            0.0003000000      NO
          RMS step            0.0064382765            0.0020000000      NO
          MAX step            0.0086134196            0.0040000000      NO
          ........................................................
          Max(Bonds)      0.0027      Max(Angles)    0.49
          Max(Dihed)        0.00      Max(Improp)    0.00
          ---------------------------------------------------------------------

The optimization has not yet converged - more geometry cycles are needed


    ---------------------------------------------------------------------------
                         Redundant Internal Coordinates
                            (Angstroem and degrees)

        Definition                    Value    dE/dq     Step     New-Value
    ----------------------------------------------------------------------------
     1. B(H   1,O   0)                0.9690  0.002532 -0.0027    0.9663   
     2. B(H   2,O   0)                0.9690  0.002507 -0.0026    0.9664   
     3. A(H   1,O   0,H   2)          103.98  0.002743   -0.49    103.48   
    ----------------------------------------------------------------------------

Geometry step timings:
Preparation and reading OPT file:      0.000 s (17.799 %)
Internal coordinates            :      0.000 s ( 4.013 %)
B/P matrices and projection     :      0.000 s (13.010 %)
Hessian update/contruction      :      0.000 s (16.699 %)
Making the step                 :      0.000 s ( 8.026 %)
Converting the step to Cartesian:      0.000 s ( 4.854 %)
Storing new data                :      0.000 s ( 3.625 %)
Checking convergence            :      0.000 s ( 0.194 %)
Final printing                  :      0.000 s (30.550 %)
Total time                      :      0.002 s
--------------------------------------------------------------------------
By default, for Open MPI 4.0 and later, infiniband ports on a device
are not used by default.  The intent is to use UCX for these devices.
You can override this policy by setting the btl_openib_allow_ib MCA parameter
to true.

  Local host:              psid00
  Local adapter:           mlx5_0
  Local port:              1

--------------------------------------------------------------------------
--------------------------------------------------------------------------
WARNING: There was an error initializing an OpenFabrics device.

  Local host:   psid00
  Local device: mlx5_0
--------------------------------------------------------------------------
[psid00:126326] 3 more processes have sent help message help-mpi-btl-openib.txt / ib port not selected
[psid00:126326] Set MCA parameter "orte_base_help_aggregate" to 0 to see all help / error messages
[psid00:126326] 3 more processes have sent help message help-mpi-btl-openib.txt / error in device init

Time for energy+gradient        :      3.372 s
Time for complete geometry iter :      3.755 s

         *************************************************************
         *                GEOMETRY OPTIMIZATION CYCLE   2            *
         *************************************************************
---------------------------------
CARTESIAN COORDINATES (ANGSTROEM)
---------------------------------
  O      0.948376   -0.035557   -0.062708
  H      1.913387   -0.060447   -0.106608
  H      0.674267   -0.492607   -0.868814

----------------------------
CARTESIAN COORDINATES (A.U.)
----------------------------
  NO LB      ZA    FRAG     MASS         X           Y           Z
   0 O     8.0000    0    15.999    1.792170   -0.067192   -0.118501
   1 H     1.0000    0     1.008    3.615777   -0.114228   -0.201460
   2 H     1.0000    0     1.008    1.274181   -0.930892   -1.641821

--------------------------------
INTERNAL COORDINATES (ANGSTROEM)
--------------------------------
 O      0   0   0     0.000000000000     0.00000000     0.00000000
 H      1   0   0     0.966329771415     0.00000000     0.00000000
 H      1   2   0     0.966352386191   103.48479295     0.00000000

---------------------------
INTERNAL COORDINATES (A.U.)
---------------------------
 O      0   0   0     0.000000000000     0.00000000     0.00000000
 H      1   0   0     1.826098623030     0.00000000     0.00000000
 H      1   2   0     1.826141358762   103.48479295     0.00000000

--------------------------------------------------------------------------
By default, for Open MPI 4.0 and later, infiniband ports on a device
are not used by default.  The intent is to use UCX for these devices.
You can override this policy by setting the btl_openib_allow_ib MCA parameter
to true.

  Local host:              psid00
  Local adapter:           mlx5_0
  Local port:              1

--------------------------------------------------------------------------
--------------------------------------------------------------------------
WARNING: There was an error initializing an OpenFabrics device.

  Local host:   psid00
  Local device: mlx5_0
--------------------------------------------------------------------------


           ************************************************************
           *        Program running with 4 parallel MPI-processes     *
           *              working on a common directory               *
           ************************************************************
------------------------------------------------------------------------------
                   ___                                                        
                  /   \      - P O W E R E D   B Y -                         
                 /     \                                                     
                 |  |  |   _    _      __       _____    __    __             
                 |  |  |  | |  | |    /  \     |  _  \  |  |  /  |          
                  \  \/   | |  | |   /    \    | | | |  |  | /  /          
                 / \  \   | |__| |  /  /\  \   | |_| |  |  |/  /          
                |  |  |   |  __  | /  /__\  \  |    /   |      \           
                |  |  |   | |  | | |   __   |  |    \   |  |\   \          
                \     /   | |  | | |  |  |  |  | |\  \  |  | \   \       
                 \___/    |_|  |_| |__|  |__|  |_| \__\ |__|  \__/        
                                                                              
                      - O R C A' S   B I G   F R I E N D -                    
                                      &                                       
                       - I N T E G R A L  F E E D E R -                       
                                                                              
 v1 FN, 2020, v2 2021, v3 2022-2024                                           
------------------------------------------------------------------------------


----------------------
SHARK INTEGRAL PACKAGE
----------------------

Number of atoms                             ...      3
Number of basis functions                   ...     24
Number of shells                            ...     12
Maximum angular momentum                    ...      2
Integral batch strategy                     ... SHARK/LIBINT Hybrid
RI-J (if used) integral strategy            ... SPLIT-RIJ (Revised 2003 algorithm where possible)
Printlevel                                  ...      1
Contraction scheme used                     ... SEGMENTED contraction
Prescreening option                         ... SCHWARTZ
   Thresh                                   ... 2.500e-11
   Tcut                                     ... 2.500e-12
   Tpresel                                  ... 2.500e-12 
Coulomb Range Separation                    ... NOT USED
Exchange Range Separation                   ... NOT USED
Multipole approximations                    ... NOT USED
Finite Nucleus Model                        ... NOT USED
CABS basis                                  ... NOT available
Auxiliary Coulomb fitting basis             ... AVAILABLE
   # of basis functions in Aux-J            ...     71
   # of shells in Aux-J                     ...     25
   Maximum angular momentum in Aux-J        ...      4
Auxiliary J/K fitting basis                 ... NOT available
Auxiliary Correlation fitting basis         ... NOT available
Auxiliary 'external' fitting basis          ... NOT available

Checking pre-screening integrals            ... done (  0.0 sec) Dimension = 12
Check shell pair data                       ... done (  0.0 sec)
Shell pair information
Shell pair cut-off parameter TPreSel        ...   2.5e-12
Total number of shell pairs                 ...        78
Shell pairs after pre-screening             ...        78
Total number of primitive shell pairs       ...       272
Primitive shell pairs kept                  ...       265
          la=0 lb=0:     28 shell pairs
          la=1 lb=0:     28 shell pairs
          la=1 lb=1:     10 shell pairs
          la=2 lb=0:      7 shell pairs
          la=2 lb=1:      4 shell pairs
          la=2 lb=2:      1 shell pairs

Calculating one electron integrals          ... done (  0.0 sec)
Calculating RI/J V-Matrix + Cholesky decomp.... done (  0.0 sec)
Calculating Nuclear repulsion               ... done (  0.0 sec) ENN=      9.110437610821 Eh

Diagonalization of the overlap matrix:
Smallest eigenvalue                        ... 3.799e-02
Time for diagonalization                   ...    0.000 sec
Threshold for overlap eigenvalues          ... 1.000e-07
Number of eigenvalues below threshold      ... 0
Time for construction of square roots      ...    0.000 sec
Total time needed                          ...    0.001 sec

-------------------
DFT GRID GENERATION
-------------------

General Integration Accuracy     IntAcc      ... 4.388
Radial Grid Type                 RadialGrid  ... OptM3 with GC (2021)
Angular Grid (max. ang.)         AngularGrid ... 4 (Lebedev-302)
Angular grid pruning method      GridPruning ... 4 (adaptive)
Weight generation scheme         WeightScheme... mBecke (2022)
Basis function cutoff            BFCut       ... 1.0000e-11
Integration weight cutoff        WCut        ... 1.0000e-14
Partially contracted basis set               ... off
Rotationally invariant grid construction     ... off
Angular grids for H and He will be reduced by one unit

Total number of grid points                  ...    12753
Total number of batches                      ...      201
Average number of points per batch           ...       63
Average number of grid points per atom       ...     4251

--------------------
COSX GRID GENERATION
--------------------

GRIDX 1
-------
General Integration Accuracy     IntAcc      ... 3.816
Radial Grid Type                 RadialGrid  ... OptM3 with GC (2021)
Angular Grid (max. ang.)         AngularGrid ... 1 (Lebedev-50)
Angular grid pruning method      GridPruning ... 4 (adaptive)
Weight generation scheme         WeightScheme... mBecke (2022)
Basis function cutoff            BFCut       ... 1.0000e-11
Integration weight cutoff        WCut        ... 1.0000e-14
Partially contracted basis set               ... on
Rotationally invariant grid construction     ... off
Angular grids for H and He will be reduced by one unit

Total number of grid points                  ...     1659
Total number of batches                      ...       14
Average number of points per batch           ...      118
Average number of grid points per atom       ...      553
UseSFitting                                  ... on

GRIDX 2
-------
General Integration Accuracy     IntAcc      ... 4.020
Radial Grid Type                 RadialGrid  ... OptM3 with GC (2021)
Angular Grid (max. ang.)         AngularGrid ... 2 (Lebedev-110)
Angular grid pruning method      GridPruning ... 4 (adaptive)
Weight generation scheme         WeightScheme... mBecke (2022)
Basis function cutoff            BFCut       ... 1.0000e-11
Integration weight cutoff        WCut        ... 1.0000e-14
Partially contracted basis set               ... on
Rotationally invariant grid construction     ... off
Angular grids for H and He will be reduced by one unit

Total number of grid points                  ...     3509
Total number of batches                      ...       30
Average number of points per batch           ...      116
Average number of grid points per atom       ...     1170
UseSFitting                                  ... on

GRIDX 3
-------
General Integration Accuracy     IntAcc      ... 4.338
Radial Grid Type                 RadialGrid  ... OptM3 with GC (2021)
Angular Grid (max. ang.)         AngularGrid ... 3 (Lebedev-194)
Angular grid pruning method      GridPruning ... 4 (adaptive)
Weight generation scheme         WeightScheme... mBecke (2022)
Basis function cutoff            BFCut       ... 1.0000e-11
Integration weight cutoff        WCut        ... 1.0000e-14
Partially contracted basis set               ... on
Rotationally invariant grid construction     ... off
Angular grids for H and He will be reduced by one unit

Total number of grid points                  ...     7779
Total number of batches                      ...       62
Average number of points per batch           ...      125
Average number of grid points per atom       ...     2593
UseSFitting                                  ... on
Initializing property integral containers    ... done (  0.0 sec)

SHARK setup successfully completed in   0.1 seconds

Maximum memory used throughout the entire STARTUP-calculation: 8.7 MB
[psid00:126343] 3 more processes have sent help message help-mpi-btl-openib.txt / ib port not selected
[psid00:126343] Set MCA parameter "orte_base_help_aggregate" to 0 to see all help / error messages
[psid00:126343] 3 more processes have sent help message help-mpi-btl-openib.txt / error in device init
--------------------------------------------------------------------------
By default, for Open MPI 4.0 and later, infiniband ports on a device
are not used by default.  The intent is to use UCX for these devices.
You can override this policy by setting the btl_openib_allow_ib MCA parameter
to true.

  Local host:              psid00
  Local adapter:           mlx5_0
  Local port:              1

--------------------------------------------------------------------------
--------------------------------------------------------------------------
WARNING: There was an error initializing an OpenFabrics device.

  Local host:   psid00
  Local device: mlx5_0
--------------------------------------------------------------------------


           ************************************************************
           *        Program running with 4 parallel MPI-processes     *
           *              working on a common directory               *
           ************************************************************
Occupation numbers will be reassigned to an Aufbau configuration
             **** ENERGY FILE WAS UPDATED (water_2.en.tmp) ****
Finished Guess after   0.3 sec
Maximum memory used throughout the entire GUESS-calculation: 5.4 MB
[psid00:126359] 3 more processes have sent help message help-mpi-btl-openib.txt / ib port not selected
[psid00:126359] Set MCA parameter "orte_base_help_aggregate" to 0 to see all help / error messages
[psid00:126359] 3 more processes have sent help message help-mpi-btl-openib.txt / error in device init
--------------------------------------------------------------------------
By default, for Open MPI 4.0 and later, infiniband ports on a device
are not used by default.  The intent is to use UCX for these devices.
You can override this policy by setting the btl_openib_allow_ib MCA parameter
to true.

  Local host:              psid00
  Local adapter:           mlx5_0
  Local port:              1

--------------------------------------------------------------------------
--------------------------------------------------------------------------
WARNING: There was an error initializing an OpenFabrics device.

  Local host:   psid00
  Local device: mlx5_0
--------------------------------------------------------------------------


           ************************************************************
           *        Program running with 4 parallel MPI-processes     *
           *              working on a common directory               *
           ************************************************************
----------------------------------------D-I-I-S--------------------------------------------
Iteration    Energy (Eh)           Delta-E    RMSDP     MaxDP     DIISErr   Damp  Time(sec)
-------------------------------------------------------------------------------------------
               ***  Starting incremental Fock matrix formation  ***
                              *** Initializing SOSCF ***
---------------------------------------S-O-S-C-F--------------------------------------
Iteration    Energy (Eh)           Delta-E    RMSDP     MaxDP     MaxGrad    Time(sec)
--------------------------------------------------------------------------------------
    1    -76.3212470898484412     0.00e+00  3.35e-04  1.94e-03  1.23e-04     0.1
               *** Restarting incremental Fock matrix formation ***
    2    -76.3212541106645546    -7.02e-06  8.72e-05  5.28e-04  2.64e-04     0.1
    3    -76.3212541937968041    -8.31e-08  4.27e-05  2.79e-04  3.04e-04     0.0
    4    -76.3212544595069602    -2.66e-07  7.96e-06  6.87e-05  2.67e-05     0.0
    5    -76.3212544641215942    -4.61e-09  1.27e-06  1.08e-05  9.27e-06     0.0
                 **** Energy Check signals convergence ****

               *****************************************************
               *                     SUCCESS                       *
               *           SCF CONVERGED AFTER   5 CYCLES          *
               *****************************************************

Recomputing exchange energy using gridx3       ... done (    0.030 sec)
Old exchange energy                            :     -1.790040560 Eh
New exchange energy                            :     -1.790052666 Eh
Exchange energy change after final integration :     -0.000012107 Eh
Total energy after final integration           :    -76.321266571 Eh
             **** ENERGY FILE WAS UPDATED (water_2.en.tmp) ****

----------------
TOTAL SCF ENERGY
----------------

Total Energy       :        -76.32126657072271 Eh           -2076.80725 eV

Components:
Nuclear Repulsion  :          9.11043761082070 Eh             247.90761 eV
Electronic Energy  :        -85.43169207494229 Eh           -2324.71453 eV
One Electron Energy:       -122.96649958462203 Eh           -3346.08857 eV
Two Electron Energy:         37.53480750967974 Eh            1021.37404 eV

Virial components:
Potential Energy   :       -152.15472553153018 Eh           -4140.34057 eV
Kinetic Energy     :         75.83345896080746 Eh            2063.53333 eV
Virial Ratio       :          2.00643261716662

DFT components:
N(Alpha)           :        4.999999364278 electrons
N(Beta)            :        4.999999364278 electrons
N(Total)           :        9.999998728556 electrons
E(X)               :       -7.122468789520 Eh       
E(C)               :       -0.402219287994 Eh       
E(XC)              :       -7.524688077514 Eh       

---------------
SCF CONVERGENCE
---------------

  Last Energy change         ...    4.6146e-09  Tolerance :   1.0000e-08
  Last MAX-Density change    ...    1.0821e-05  Tolerance :   1.0000e-07
  Last RMS-Density change    ...    1.2665e-06  Tolerance :   5.0000e-09
  Last DIIS Error            ...    1.0930e-03  Tolerance :   5.0000e-07
  Last Orbital Gradient      ...    9.2728e-06  Tolerance :   1.0000e-05
  Last Orbital Rotation      ...    4.5498e-06  Tolerance :   1.0000e-05


Total SCF time: 0 days 0 hours 0 min 0 sec 
Finished LeanSCF after   0.5 sec

Maximum memory used throughout the entire LEANSCF-calculation: 5.1 MB
[psid00:126375] 3 more processes have sent help message help-mpi-btl-openib.txt / ib port not selected
[psid00:126375] Set MCA parameter "orte_base_help_aggregate" to 0 to see all help / error messages
[psid00:126375] 3 more processes have sent help message help-mpi-btl-openib.txt / error in device init


-------------------------------------------------------------------------------
                          DFT DISPERSION CORRECTION                            
                                                                               
                              DFTD3 V3.1  Rev 1                                
                          USING Becke-Johnson damping                          
-------------------------------------------------------------------------------
-------------------------   ----------------
Dispersion correction           -0.000573927
-------------------------   ----------------


-------------------------   --------------------
FINAL SINGLE POINT ENERGY       -76.321840497797
-------------------------   --------------------

--------------------------------------------------------------------------
By default, for Open MPI 4.0 and later, infiniband ports on a device
are not used by default.  The intent is to use UCX for these devices.
You can override this policy by setting the btl_openib_allow_ib MCA parameter
to true.

  Local host:              psid00
  Local adapter:           mlx5_0
  Local port:              1

--------------------------------------------------------------------------
--------------------------------------------------------------------------
WARNING: There was an error initializing an OpenFabrics device.

  Local host:   psid00
  Local device: mlx5_0
--------------------------------------------------------------------------


           ************************************************************
           *        Program running with 4 parallel MPI-processes     *
           *              working on a common directory               *
           ************************************************************
------------------------------------------------------------------------------
                         ORCA SCF GRADIENT CALCULATION
------------------------------------------------------------------------------

Nuc. rep. gradient        (SHARK) ... done (  0.0 sec)
HCore & Overlap gradient  (SHARK) ... done (  0.0 sec)
Split-RIJ-J gradient      (SHARK) ... done (  0.1 sec)
COSX-gradient                     ... done (  0.1 sec)
XC gradient                       ... done (  0.0 sec)
Dispersion correction             ... done (  0.0 sec)

-------------------
DISPERSION GRADIENT
-------------------

   1   O   :    0.000001067   -0.000000744   -0.000001313
   2   H   :    0.000000852    0.000000855    0.000001508
   3   H   :   -0.000001919   -0.000000111   -0.000000195

Difference to translation invariance:
           :    0.0000000000    0.0000000000    0.0000000000

Difference to rotation invariance:
           :    0.0000000000   -0.0000000000    0.0000000000

Norm of the Dispersion gradient    ...    0.0000032984
RMS gradient                       ...    0.0000010995
MAX gradient                       ...    0.0000019185

------------------
CARTESIAN GRADIENT
------------------

   1   O   :    0.000770116   -0.000531466   -0.000963146
   2   H   :   -0.000328359    0.000306042    0.000524353
   3   H   :   -0.000441757    0.000225424    0.000438793

Difference to translation invariance:
           :   -0.0000000001    0.0000000000    0.0000000000

Difference to rotation invariance:
           :   -0.0000348667   -0.0000287460    0.0000443432

Norm of the Cartesian gradient     ...    0.0016486708
RMS gradient                       ...    0.0005495569
MAX gradient                       ...    0.0009631456

-------
TIMINGS
-------

Total SCF gradient time     ....        0.259 sec

Densities                   ....       0.000 sec  (  0.0%)
One electron gradient       ....       0.002 sec  (  0.9%)
RI-J Coulomb gradient       ....       0.081 sec  ( 31.3%)
COSX gradient               ....       0.097 sec  ( 37.6%)
XC gradient                 ....       0.029 sec  ( 11.1%)

Maximum memory used throughout the entire SCFGRAD-calculation: 25.2 MB
[psid00:126438] 3 more processes have sent help message help-mpi-btl-openib.txt / ib port not selected
[psid00:126438] Set MCA parameter "orte_base_help_aggregate" to 0 to see all help / error messages
[psid00:126438] 3 more processes have sent help message help-mpi-btl-openib.txt / error in device init
------------------------------------------------------------------------------
                         ORCA GEOMETRY RELAXATION STEP
------------------------------------------------------------------------------

Reading the OPT-File                    .... done
Getting information on internals        .... done
Copying old internal coords+grads       .... done
Making the new internal coordinates     .... (2022 redundants) done
Validating the new internal coordinates .... (2022 redundants) done
Calculating the B-matrix                .... done
Calculating the G,G- and P matrices     .... done
Transforming gradient to internals      .... done
Projecting the internal gradient        .... done
Number of atoms                         ....   3
Number of internal coordinates          ....   3
Current Energy                          ....   -76.321840498 Eh
Current gradient norm                   ....     0.001648671 Eh/bohr
Maximum allowed component of the step   ....  0.300
Current trust radius                    ....  0.300
Updating the Hessian (BFGS)             .... done
Forming the augmented Hessian           .... done
Diagonalizing the augmented Hessian     .... done
Last element of RFO vector              ....  0.999989852
Lowest eigenvalues of augmented Hessian:
 -0.000004963  0.226061171  0.503062242
Length of the computed step             ....  0.004505148
The final length of the internal step   ....  0.004505148
Converting the step to Cartesian space:
 Initial RMS(Int)=    0.0026010487
Transforming coordinates:
 Iter   0:  RMS(Cart)=    0.0014136036 RMS(Int)=    0.0026009639
done
Storing new coordinates                 .... done
The predicted energy change is          ....    -0.000002481
Previously predicted energy change      ....    -0.000024434
Actually observed energy change         ....    -0.000027279
Ratio of predicted to observed change   ....     1.116424111
New trust radius                        ....     0.450000000

                                .--------------------.
          ----------------------|Geometry convergence|-------------------------
          Item                value                   Tolerance       Converged
          ---------------------------------------------------------------------
          Energy change      -0.0000272788            0.0000050000      NO
          RMS gradient        0.0006726290            0.0001000000      NO
          MAX gradient        0.0010523284            0.0003000000      NO
          RMS step            0.0026010487            0.0020000000      NO
          MAX step            0.0044769598            0.0040000000      NO
          ........................................................
          Max(Bonds)      0.0002      Max(Angles)    0.26
          Max(Dihed)        0.00      Max(Improp)    0.00
          ---------------------------------------------------------------------

The optimization has not yet converged - more geometry cycles are needed


    ---------------------------------------------------------------------------
                         Redundant Internal Coordinates
                            (Angstroem and degrees)

[...]
               *                     SUCCESS                       *
               *           SCF CONVERGED AFTER   2 CYCLES          *
               *****************************************************

Recomputing exchange energy using gridx3       ... done (    0.032 sec)
Old exchange energy                            :     -1.789912278 Eh
New exchange energy                            :     -1.789924547 Eh
Exchange energy change after final integration :     -0.000012269 Eh
Total energy after final integration           :    -76.321270611 Eh
             **** ENERGY FILE WAS UPDATED (water_2.en.tmp) ****

----------------
TOTAL SCF ENERGY
----------------

Total Energy       :        -76.32127061124623 Eh           -2076.80736 eV

Components:
Nuclear Repulsion  :          9.10597202436909 Eh             247.78610 eV
Electronic Energy  :        -85.42723036701261 Eh           -2324.59312 eV
One Electron Energy:       -122.95718255187970 Eh           -3345.83504 eV
Two Electron Energy:         37.52995218486708 Eh            1021.24192 eV

Virial components:
Potential Energy   :       -152.15403014687962 Eh           -4140.32165 eV
Kinetic Energy     :         75.83275953563340 Eh            2063.51429 eV
Virial Ratio       :          2.00644195303724

DFT components:
N(Alpha)           :        4.999999355682 electrons
N(Beta)            :        4.999999355682 electrons
N(Total)           :        9.999998711363 electrons
E(X)               :       -7.122065630661 Eh       
E(C)               :       -0.402196070397 Eh       
E(XC)              :       -7.524261701057 Eh       

---------------
SCF CONVERGENCE
---------------

  Last Energy change         ...    1.9654e-10  Tolerance :   1.0000e-08
  Last MAX-Density change    ...    3.8161e-06  Tolerance :   1.0000e-07
  Last RMS-Density change    ...    5.1841e-07  Tolerance :   5.0000e-09
  Last DIIS Error            ...    6.1365e-06  Tolerance :   5.0000e-07
  Last Orbital Gradient      ...    1.6717e-06  Tolerance :   1.0000e-05
  Last Orbital Rotation      ...    2.0957e-06  Tolerance :   1.0000e-05


----------------
ORBITAL ENERGIES
----------------

  NO   OCC          E(Eh)            E(eV) 
   0   2.0000     -19.116163      -520.1772 
   1   2.0000      -0.976145       -26.5623 
   2   2.0000      -0.508036       -13.8244 
   3   2.0000      -0.364384        -9.9154 
   4   2.0000      -0.288119        -7.8401 
   5   0.0000       0.047715         1.2984 
   6   0.0000       0.126636         3.4459 
   7   0.0000       0.558333        15.1930 
   8   0.0000       0.623838        16.9755 
   9   0.0000       0.920657        25.0524 
  10   0.0000       0.923614        25.1328 
  11   0.0000       1.010151        27.4876 
  12   0.0000       1.098327        29.8870 
  13   0.0000       1.351316        36.7712 
  14   0.0000       1.398917        38.0665 
  15   0.0000       1.545657        42.0595 
*Only the first 10 virtual orbitals were printed.

                    ********************************
                    * MULLIKEN POPULATION ANALYSIS *
                    ********************************

-----------------------
MULLIKEN ATOMIC CHARGES
-----------------------
   0 O :   -0.293686
   1 H :    0.146859
   2 H :    0.146828
Sum of atomic charges:   -0.0000000

--------------------------------
MULLIKEN REDUCED ORBITAL CHARGES
--------------------------------
  0 O s       :     3.686912  s :     3.686912
      pz      :     1.518067  p :     4.595855
      px      :     1.260293
      py      :     1.817494
      dz2     :     0.003382  d :     0.010920
      dxz     :     0.000969
      dyz     :     0.002696
      dx2y2   :     0.003285
      dxy     :     0.000588

  1 H s       :     0.782709  s :     0.782709
      pz      :     0.017024  p :     0.070433
      px      :     0.034545
      py      :     0.018864

  2 H s       :     0.782741  s :     0.782741
      pz      :     0.029296  p :     0.070431
      px      :     0.018327
      py      :     0.022808



                     *******************************
                     * LOEWDIN POPULATION ANALYSIS *
                     *******************************

----------------------
LOEWDIN ATOMIC CHARGES
----------------------
   0 O :   -0.150122
   1 H :    0.075057
   2 H :    0.075064

-------------------------------
LOEWDIN REDUCED ORBITAL CHARGES
-------------------------------
  0 O s       :     3.439955  s :     3.439955
      pz      :     1.561451  p :     4.690023
      px      :     1.342625
      py      :     1.785948
      dz2     :     0.006139  d :     0.020143
      dxz     :     0.001350
      dyz     :     0.004928
      dx2y2   :     0.007209
      dxy     :     0.000518

  1 H s       :     0.750034  s :     0.750034
      pz      :     0.038721  p :     0.174909
      px      :     0.087319
      py      :     0.048868

  2 H s       :     0.750041  s :     0.750041
      pz      :     0.079558  p :     0.174895
      px      :     0.033347
      py      :     0.061989



                      *****************************
                      * MAYER POPULATION ANALYSIS *
                      *****************************

  NA   - Mulliken gross atomic population
  ZA   - Total nuclear charge
  QA   - Mulliken gross atomic charge
  VA   - Mayer's total valence
  BVA  - Mayer's bonded valence
  FA   - Mayer's free valence

  ATOM       NA         ZA         QA         VA         BVA        FA
  0 O      8.2937     8.0000    -0.2937     2.0163     2.0163    -0.0000
  1 H      0.8531     1.0000     0.1469     1.0135     1.0135     0.0000
  2 H      0.8532     1.0000     0.1468     1.0136     1.0136     0.0000

  Mayer bond orders larger than 0.100000
B(  0-O ,  1-H ) :   1.0081 B(  0-O ,  2-H ) :   1.0082 

Environment variable NBOEXE for nbo6.exe or nbo5.exe not set! Skipping NBO-Analysis

-------
TIMINGS
-------

Total SCF time: 0 days 0 hours 0 min 0 sec 

Total time                  ....       0.414 sec
Sum of individual times     ....       0.405 sec  ( 98.0%)

SCF preparation             ....       0.257 sec  ( 62.1%)
Fock matrix formation       ....       0.124 sec  ( 30.0%)
  Startup                   ....       0.002 sec  (  1.2% of F)
  Split-RI-J                ....       0.005 sec  (  3.8% of F)
  Chain of spheres X        ....       0.098 sec  ( 78.7% of F)
  XC integration            ....       0.018 sec  ( 14.2% of F)
    Basis function eval.    ....       0.006 sec  ( 33.9% of XC)
    Density eval.           ....       0.001 sec  (  7.5% of XC)
    XC-Functional eval.     ....       0.006 sec  ( 34.0% of XC)
    XC-Potential eval.      ....       0.002 sec  (  9.8% of XC)
Diagonalization             ....       0.000 sec  (  0.0%)
Density matrix formation    ....       0.001 sec  (  0.3%)
Total Energy calculation    ....       0.001 sec  (  0.3%)
Population analysis         ....       0.014 sec  (  3.5%)
Orbital Transformation      ....       0.002 sec  (  0.5%)
Orbital Orthonormalization  ....       0.000 sec  (  0.0%)
DIIS solution               ....       0.002 sec  (  0.5%)
SOSCF solution              ....       0.004 sec  (  0.9%)
Finished LeanSCF after   0.4 sec

Maximum memory used throughout the entire LEANSCF-calculation: 5.4 MB
[psid00:127190] 3 more processes have sent help message help-mpi-btl-openib.txt / ib port not selected
[psid00:127190] Set MCA parameter "orte_base_help_aggregate" to 0 to see all help / error messages
[psid00:127190] 3 more processes have sent help message help-mpi-btl-openib.txt / error in device init


-------------------------------------------------------------------------------
                          DFT DISPERSION CORRECTION                            
                                                                               
                              DFTD3 V3.1  Rev 1                                
                          USING Becke-Johnson damping                          
-------------------------------------------------------------------------------
The B3LYP functional is recognized
Active option DFTDOPT                   ...         4   

molecular C6(AA) [au] = 44.536625 


            DFT-D V3
 parameters
 s6 scaling factor         :     1.0000 
 a1 scaling factor         :     0.3981 
 s8 scaling factor         :     1.9889 
 a2 scaling factor         :     4.4211 
 ad hoc parameters k1-k3   :    16.0000     1.3333    -4.0000 

 Edisp/kcal,au: -0.360158678402  -0.000573949326 
 E6   /kcal   :  -0.196960633 
 E8   /kcal   :  -0.163198045 
 % E8         :  45.312817636 

-------------------------   ----------------
Dispersion correction           -0.000573949
-------------------------   ----------------


-------------------------   --------------------
FINAL SINGLE POINT ENERGY       -76.321844560573
-------------------------   --------------------

                                *** OPTIMIZATION RUN DONE ***

--------------------------------------------------------------------------
By default, for Open MPI 4.0 and later, infiniband ports on a device
are not used by default.  The intent is to use UCX for these devices.
You can override this policy by setting the btl_openib_allow_ib MCA parameter
to true.

  Local host:              psid00
  Local adapter:           mlx5_0
  Local port:              1

--------------------------------------------------------------------------
--------------------------------------------------------------------------
WARNING: There was an error initializing an OpenFabrics device.

  Local host:   psid00
  Local device: mlx5_0
--------------------------------------------------------------------------


           ************************************************************
           *        Program running with 4 parallel MPI-processes     *
           *              working on a common directory               *
           ************************************************************

------------------------------------------------------------------------------
                              ORCA PROPERTY CALCULATIONS
------------------------------------------------------------------------------

GBWName                                 ... water_2.gbw
Number of atoms                         ...      3
Number of basis functions               ...     24
Max core memory                         ...   1024 MB

Electric properties:
Dipole moment                           ... YES
Quadrupole moment                       ...  NO
Static polarizability (Dipole/Dipole)   ...  NO
Static polarizability (Dipole/Quad.)    ...  NO
Static polarizability (Quad./Quad.)     ...  NO
Static polarizability (Velocity)        ...  NO

Atomic electric properties:
Dipole moment                           ...  NO
Quadrupole moment                       ...  NO
Static polarizability                   ...  NO

Choice of electric origin               ... Center of mass
Position of electric origin             ...     1.863418    -0.116891    -0.206156

General magnetic properties:
Magnetizability                         ...  NO

EPR properties:
g-Tensor (aka g-matrix)                 ...  NO
Zero-Field splitting spin-orbit         ...  NO
Zero-field splitting spin-spin          ...  NO
Hyperfine couplings                     ...  NO (   0 nuclei)
Quadrupole couplings                    ...  NO (   0 nuclei)
Contact density                         ...  NO (   0 nuclei)

NMR properties:
Chemical shifts                         ...  NO (   0 nuclei)
Spin-rotation constants                 ...  NO (   0 nuclei)
Spin-spin couplings                     ...  NO (   0 nuclei,    0 pairs)

Choice of magnetic origin               ... GIAO
Position of magnetic origin             ...     0.000000     0.000000     0.000000

Properties with geometric perturbations:
SCF Hessian                             ...  NO
IR spectrum                             ...  NO
VCD spectrum                            ...  NO
X-ray spectroscopy properties:
SCF XES/XAS/RIXS spectra                ...  NO


-------------
DIPOLE MOMENT
-------------

Method             : SCF
Type of density    : Electron Density
Multiplicity       :   1
Irrep              :   0
Energy             :   -76.3212706112462342 Eh
Relativity type    : 
Basis              : AO
                                X                 Y                 Z
Electronic contribution:     -0.122785573       0.085665744       0.151049126
Nuclear contribution   :      0.577948820      -0.403148070      -0.711039081
                        -----------------------------------------
Total Dipole Moment    :      0.455163247      -0.317482326      -0.559989955
                        -----------------------------------------
Magnitude (a.u.)       :      0.788389090
Magnitude (Debye)      :      2.003925813



--------------------
Rotational spectrum 
--------------------
 
Rotational constants in cm-1:            26.037956            14.585164             9.348565 
Rotational constants in MHz :        780598.291110        437252.225612        280262.918487 

Dipole components along the rotational axes: 
x,y,z [a.u.] :    -0.000042    -0.788389    -0.000020 
x,y,z [Debye]:    -0.000108    -2.003926    -0.000051 

 

Dipole moment calculation done in   0.0 sec 

Maximum memory used throughout the entire PROP-calculation: 3.8 MB
[psid00:127206] 3 more processes have sent help message help-mpi-btl-openib.txt / ib port not selected
[psid00:127206] Set MCA parameter "orte_base_help_aggregate" to 0 to see all help / error messages
[psid00:127206] 3 more processes have sent help message help-mpi-btl-openib.txt / error in device init
--------------------------------------------------------------------------
By default, for Open MPI 4.0 and later, infiniband ports on a device
are not used by default.  The intent is to use UCX for these devices.
You can override this policy by setting the btl_openib_allow_ib MCA parameter
to true.

  Local host:              psid00
  Local adapter:           mlx5_0
  Local port:              1

--------------------------------------------------------------------------
--------------------------------------------------------------------------
WARNING: There was an error initializing an OpenFabrics device.

  Local host:   psid00
  Local device: mlx5_0
--------------------------------------------------------------------------
[psid00:127223] 3 more processes have sent help message help-mpi-btl-openib.txt / ib port not selected
[psid00:127223] Set MCA parameter "orte_base_help_aggregate" to 0 to see all help / error messages
[psid00:127223] 3 more processes have sent help message help-mpi-btl-openib.txt / error in device init

--------------------------------
SUGGESTED CITATIONS FOR THIS RUN
--------------------------------

Below you find a list of papers that are relevant to this ORCA run
We neither can nor want to force you to cite these papers, but we appreciate if you do
You receive ORCA, which is the product of decades of hard work by many enthusiastic individuals, for free
The only thing we kindly ask in return is that you cite our papers,
We deeply appreciate it, if you show your appreciation for ORCA by not just citing the generic ORCA reference.

Please note that relegating all ORCA citations to the supporting information does *not* help us.
SI sections are not indexed - citations you put there will not count into any citation statistics
But we need these citations in order to attract the funding resources that allow us to do what we are doing

Therefore, if you are a happy ORCA user, please consider citing a few of the papers listed below in the main body of your paper

In addition to the list printed below, the program has created the file water_2.bibtex that contains the list in bibtex format
You can import this file easily into all common literature databanks and citation aid programs


List of essential papers. We consider these as the minimum necessary citations

  1. Neese,F.
     Software update: the ORCA program system, version 5.0
     WIRES Comput. Molec. Sci., 2022 12(1)e1606
     doi.org/10.1002/wcms.1606

List of papers to cite with high priority. The work reported in these papers was absolutely
necessary for this run to complete.
Our perspective: the developers of density functionals and basis sets usually get cited in chemistry papers
Good! But without the algorithms to do something with them, the functionals or basis sets would not do anything.
Hence, in our opinion, the algorithm design and method developments papers are equally worthy of getting cited

  1. Neese,F.
     An improvement of the resolution of the identity approximation for the formation of the Coulomb matrix
     J. Comp. Chem., 2003 24(14)1740-1747
     doi.org/10.1002/jcc.10318
  2. Neese,F.; Wennmohs,F.; Hansen,A.; Becker,U.
     Efficient, approximate and parallel Hartree-Fock and hybrid DFT calculations. A 'chain-of-spheres' algorithm for the Hartree-Fock exchange
     Chem. Phys., 2009 356(1-3)98-109
     doi.org/10.1016/j.chemphys.2008.10.036
  3. Helmich-Paris,B.; de Souza,B.; Neese,F.; Izsák,R.
     An improved chain of spheres for exchange algorithm
     J. Chem. Phys., 2021 155 104109
     doi.org/doi: 10.1063/5.0058766.
  4. Neese,F.
     The SHARK Integral Generation and Digestion System
     J. Comp. Chem., 2022  1-16
     doi.org/10.1002/jcc.26942
  5. Grimme,S.; Antony,J.; Ehrlich,S.; Krieg,H.
     A consistent and accurate ab initio parametrization of density functional dispersion correction (DFT-D) for the 94 elements H-Pu
     J. Chem. Phys., 2010 132 154104
     doi.org/10.1063/1.3382344
  6. Grimme,S.; Ehrlich,S.; Goerigk,L.
     Effect of the damping function in dispersion corrected density functional theory
     J. Comput. Chem., 2011 32(7)1456-1465
     doi.org/10.1002/jcc.21759

List of suggested additional citations. These are papers that are important in the 'surrounding' of 
of this run, or papers that preceded the highly important papers. If you like your results we are grateful for a citation.

  1. Izsak,R.; Neese,F.
     An overlap fitted chain of spheres exchange method
     J. Chem. Phys., 2011 135 144105
     doi.org/10.1063/1.3646921
  2. Izsak,R.; Hansen,A.; Neese,F.
     The resolution of identity and chain of spheres approximations for the LPNO-CCSD singles Fock term
     Molec. Phys., 2012 110 2413-2417
     doi.org/10.1080/00268976.2012.687466
  3. Neese,F.
     The ORCA program system
     WIRES Comput. Molec. Sci., 2012 2(1)73-78
     doi.org/10.1002/wcms.81
  4. Izsak,R.; Neese,F.; Klopper,W.
     Robust fitting techniques in the chain of spheres approximation to the Fock exchange: The role of the complementary space
     J. Chem. Phys., 2013 139 
     doi.org/10.1063/1.4819264
  5. Neese,F.
     Software update: the ORCA program system, version 4.0
     WIRES Comput. Molec. Sci., 2018 8(1)1-6
     doi.org/10.1002/wcms.1327
  6. Neese,F.; Wennmohs,F.; Becker,U.; Riplinger,C.
     The ORCA quantum chemistry program package
     J. Chem. Phys., 2020 152 Art. No. L224108
     doi.org/10.1063/5.0004608

List of optional additional citations

  1. Neese,F.
     Approximate second-order SCF convergence for spin unrestricted wavefunctions
     Chem. Phys. Lett., 2000 325(1-3)93-98
     doi.org/10.1016/s0009-2614(00)00662-x

Timings for individual modules:

Sum of individual times          ...       16.050 sec (=   0.267 min)
Startup calculation              ...        3.747 sec (=   0.062 min)  23.3 %
SCF iterations                   ...        7.736 sec (=   0.129 min)  48.2 %
Property calculations            ...        0.410 sec (=   0.007 min)   2.6 %
SCF Gradient evaluation          ...        4.140 sec (=   0.069 min)  25.8 %
Geometry relaxation              ...        0.017 sec (=   0.000 min)   0.1 %
                             ****ORCA TERMINATED NORMALLY****
TOTAL RUN TIME: 0 days 0 hours 0 minutes 18 seconds 94 msec
