# vtk DataFile Version 1.0
Cube
ASCII

DATASET POLYDATA
POINTS 56 float
0.064897 0.692827 3.234760
0.168679 1.129796 2.008381
5.206469 4.286327 9.177980
5.102687 4.723296 10.404359
5.206469 6.494173 9.177980
5.102687 6.057204 10.404359
0.064897 2.900673 3.234760
0.168679 2.463704 2.008381
5.194804 1.796750 9.000726
3.411683 1.796750 7.728172
2.304187 1.796750 9.640975
-2.763220 1.796750 9.467197
6.749845 1.796750 7.466263
4.757927 1.796750 11.201257
2.375585 1.796750 8.429492
1.076717 1.796750 7.627629
1.137705 1.796750 6.270916
1.964934 1.796750 5.846401
-0.055933 1.796750 5.495120
-1.236659 1.796750 6.119481
-2.026577 1.796750 5.629178
-1.277016 1.796750 7.546946
-0.179216 1.796750 8.289228
-0.230608 1.796750 9.217701
-2.676897 1.796750 8.179996
0.040191 1.796750 4.004350
0.076562 5.390250 3.412014
1.859682 5.390250 4.684568
2.967178 5.390250 2.771765
8.034586 5.390250 2.945543
-1.478479 5.390250 4.946477
0.513439 5.390250 1.211483
2.895780 5.390250 3.983248
4.194648 5.390250 4.785111
4.133660 5.390250 6.141824
3.306431 5.390250 6.566340
5.327299 5.390250 6.917620
6.508025 5.390250 6.293259
7.297942 5.390250 6.783562
6.548382 5.390250 4.865794
5.450582 5.390250 4.123512
5.501973 5.390250 3.195039
7.948263 5.390250 4.232744
5.231174 5.390250 8.408390
0.000000 0.000000 0.000000
-5.190834 0.000000 12.412740
0.000000 7.187000 0.000000
-5.190834 7.187000 12.412740
10.462200 0.000000 0.000000
5.271366 0.000000 12.412740
10.462200 7.187000 0.000000
5.271366 7.187000 12.412740
0.000000 3.593500 0.000000
-5.190834 3.593500 12.412740
10.462200 3.593500 0.000000
5.271366 3.593500 12.412740
POINT_DATA 56
SCALARS my_scalars float
LOOKUP_TABLE default
1.55
1.55
1.55
1.55
1.55
1.55
1.55
1.55
1.58
1.52
1.52
1.52
1.52
1.52
1.7
1.7
1.7
1.09
1.7
1.7
1.09
1.7
1.7
1.09
1.7
1.7
1.58
1.52
1.52
1.52
1.52
1.52
1.7
1.7
1.7
1.09
1.7
1.7
1.09
1.7
1.7
1.09
1.7
1.7
1.58
1.58
1.58
1.58
1.58
1.58
1.58
1.58
1.58
1.58
1.58
1.58
VECTORS vectors float
0 0 0
0 0 0
0 0 0
0 0 0
0 0 0
0 0 0
0 0 0
0 0 0
0.4375 0 0
0.03125 0 0
0.03125 0 0
0.03125 0 0
0.03125 0 0
0.03125 0 0
0.3125 0 0
0.3125 0 0
0.3125 0 0
0.25 0 0
0.3125 0 0
0.3125 0 0
0.25 0 0
0.3125 0 0
0.3125 0 0
0.25 0 0
0.3125 0 0
0.3125 0 0
0.4375 0 0
0.03125 0 0
0.03125 0 0
0.03125 0 0
0.03125 0 0
0.03125 0 0
0.3125 0 0
0.3125 0 0
0.3125 0 0
0.25 0 0
0.3125 0 0
0.3125 0 0
0.25 0 0
0.3125 0 0
0.3125 0 0
0.25 0 0
0.3125 0 0
0.3125 0 0
0.4375 0 0
0.4375 0 0
0.4375 0 0
0.4375 0 0
0.4375 0 0
0.4375 0 0
0.4375 0 0
0.4375 0 0
0.4375 0 0
0.4375 0 0
0.4375 0 0
0.4375 0 0
