
                                 *****************
                                 * O   R   C   A *
                                 *****************

                                            #,                                       
                                            ###                                      
                                            ####                                     
                                            #####                                    
                                            ######                                   
                                           ########,                                 
                                     ,,################,,,,,                         
                               ,,#################################,,                 
                          ,,##########################################,,             
                       ,#########################################, ''#####,          
                    ,#############################################,,   '####,        
                  ,##################################################,,,,####,       
                ,###########''''           ''''###############################       
              ,#####''   ,,,,##########,,,,          '''####'''          '####       
            ,##' ,,,,###########################,,,                        '##       
           ' ,,###''''                  '''############,,,                           
         ,,##''                                '''############,,,,        ,,,,,,###''
      ,#''                                            '''#######################'''  
     '                                                          ''''####''''         
             ,#######,   #######,   ,#######,      ##                                
            ,#'     '#,  ##    ##  ,#'     '#,    #''#        ,####,   ,####,        
            ##       ##  ##   ,#'  ##            #'  '#       #'       #'  '#        
            ##       ##  #######   ##           ,######,      #####,   #    #        
            '#,     ,#'  ##    ##  '#,     ,#' ,#      #,     #,   #   #,  ,#        
             '#######'   ##     ##  '#######'  #'      '#     '####' # '####'        



                #########################################################
                #                        -***-                          #
                #          Department of theory and spectroscopy        #
                #                                                       #
                #                      Frank Neese                      #
                #                                                       #
                #     Directorship, Architecture, Infrastructure        #
                #                    SHARK, DRIVERS                     #
                #        Core code/Algorithms in most modules           #
                #                                                       #
                #        Max Planck Institute fuer Kohlenforschung      #
                #                Kaiser Wilhelm Platz 1                 #
                #                 D-45470 Muelheim/Ruhr                 #
                #                      Germany                          #
                #                                                       #
                #                  All rights reserved                  #
                #                        -***-                          #
                #########################################################


                         Program Version 6.0.1  -  RELEASE   -


 With contributions from (in alphabetic order):
[Max-Planck-Institut fuer Kohlenforschung]                               
  Daniel Aravena         : Magnetic Suceptibility                        
  Michael Atanasov       : Ab Initio Ligand Field Theory (pilot matlab implementation)
  Alexander A. Auer      : GIAO ZORA, VPT2 properties, NMR spectrum      
  Ute Becker             : All parallelization in ORCA, NUMFREQ, NUMCALC 
  Giovanni Bistoni       : ED, misc. LED, open-shell LED, HFLD           
  Martin Brehm           : Molecular dynamics                            
  Dmytro Bykov           : pre 5.0 version of the SCF Hessian            
  Marcos Casanova-Páez   : Triplet and SCS-CIS(D). UHF-(DLPNO)-IP/EA/STEOM-CCSD. UHF-CVS-IP/STEOM-CCSD   
  Vijay G. Chilkuri      : MRCI spin determinant printing, contributions to CSF-ICE 
  Pauline Colinet        : FMM embedding                                 
  Dipayan Datta          : RHF DLPNO-CCSD density                        
  Achintya Kumar Dutta   : EOM-CC, STEOM-CC                              
  Nicolas Foglia         : Exact transition moments, OPA infrastructure, MCD improvements    
  Dmitry Ganyushin       : Spin-Orbit,Spin-Spin,Magnetic field MRCI      
  Miquel Garcia-Rates    : C-PCM and meta-GGA Hessian, CCSD/C-PCM, Gaussian charge scheme 
  Tiago L. C. Gouveia    : GS-ROHF, GS-ROCIS                             
  Yang Guo               : DLPNO-NEVPT2, F12-NEVPT2, CIM, IAO-localization        
  Andreas Hansen         : Spin unrestricted coupled pair/coupled cluster methods 
  Ingolf Harden          : AUTO-CI MPn and infrastructure                
  Benjamin Helmich-Paris : MC-RPA, TRAH-(SCF,CASSCF), AVAS, COSX integrals, SCF dyn. polar. 
  Lee Huntington         : MR-EOM, pCC                                   
  Robert Izsak           : Overlap fitted RIJCOSX, COSX-SCS-MP3, EOM     
  Riya Kayal             : Wick's Theorem for AUTO-CI, AUTO-CI UHF-CCSDT 
  Emily Kempfer          : AUTO-CI, RHF CISDT and CCSDT                  
  Christian Kollmar      : KDIIS, OOCD, Brueckner-CCSD(T), CCSD density, CASPT2, CASPT2-K, improved NEVPT2 
  Axel Koslowski         : Symmetry handling                             
  Simone Kossmann        : meta-GGA functionals, TD-DFT gradient, OOMP2, (MP2 Hessian; deprecated post 5.0) 
  Lucas Lang             : DCDCAS                                        
  Marvin Lechner         : AUTO-CI (C++ implementation), FIC-MRCC        
  Spencer Leger          : CASSCF response                               
  Dagmar Lenk            : GEPOL surface, SMD, ORCA-2-JSON               
  Dimitrios Liakos       : Extrapolation schemes; Compound Job, initial MDCI parallelization 
  Dimitrios Manganas     : Further ROCIS development; embedding schemes. LFT, Crystal Embedding 
  Dimitrios Pantazis     : SARC Basis sets                               
  Anastasios Papadopoulos: AUTO-CI, single reference methods and gradients 
  Taras Petrenko         : pre 6.0 DFT Hessian and TD-DFT gradient, (ASA, deprecated), ECA, 1-Electron XAS/XES, NRVS 
  Peter Pinski           : DLPNO-MP2, DLPNO-MP2 Gradient                 
  Christoph Reimann      : Effective Core Potentials                     
  Marius Retegan         : Local ZFS, SOC                                
  Christoph Riplinger    : Optimizer, TS searches, QM/MM, DLPNO-CCSD(T), (RO)-DLPNO pert. Triples 
  Michael Roemelt        : Original ROCIS implementation                 
  Masaaki Saitow         : Open-shell DLPNO-CCSD energy and density      
  Barbara Sandhoefer     : DKH picture change effects                    
  Kantharuban Sivalingam : CASSCF convergence/infrastructure, NEVPT2 and variants, FIC-MRCI 
  Bernardo de Souza      : ESD, SOC TD-DFT                               
  Georgi L. Stoychev     : AutoAux, RI-MP2 NMR, DLPNO-MP2 response, X2C  
  Van Anh Tran           : RI-MP2 g-tensors                              
  Willem Van den Heuvel  : Paramagnetic NMR                              
  Zikuan Wang            : NOTCH, Electric field optimization            
  Frank Wennmohs         : Technical directorship and infrastructure     
  Hang Xu                : AUTO-CI-Response properties                   
                                                                         
[FACCTs GmbH]                                                            
  Markus Bursch, Miquel Garcia-Rates, Christoph Riplinger, Bernardo de Souza, Georgi L. Stoychev 
                                                                 
  APM, Basis sets (HGBS, AHGBS, def-TZVP (Ac-Lr), def2-XVPD (La-Lu)), CI-OPT, improved COSX, DLPNO-Multilevel,           
  DOCKER, DRACO, updates on ESD, GOAT, IRC, LR-CPCM, MBIS, meta-GGA TD-DFT gradient, ML-optimized integration grids, 
  MM, NACMEs, nearIR, NEB, NEB-TS, NL-DFT gradient (VV10), 2- and 3-layer-ONIOM, interface openCOSMO-RS, QMMM,   
  Crystal-QMMM, SF, symmetry and pop. for TD-DFT, r2SCAN hybrids, SOLVATOR                                   
                                                                         
[Other institutions]                                                     
  V. Asgeirsson          : NEB                                           
  Christoph Bannwarth    : sTDA-DFT, sTD-DFT, PBEh-3c, B97-3c, D3        
  Sebastian Ehlert       : rSCAN, r2SCAN, r2SCAN-3c, D4, dhf basis sets  
  Marvin Friede          : D4 for Fr, Ra, Ac-Lr                          
  Lars Goerigk           : TD-DFT with DH, B97 family of functionals     
  Stefan Grimme          : VdW corrections, initial TS optimization, DFT functionals, gCP, sTDA/sTD-DF 
  Waldemar Hujo          : DFT-NL                                        
  H. Jonsson             : NEB                                           
  Holger Kruse           : gCP                                           
  Marcel Mueller         : wB97X-3c, vDZP basis set                      
  Hagen Neugebauer       : wr2SCAN                                       
  Tobias Risthaus        : range-separated hybrid DFT                    
  Lukas Wittmann         : regularized MP2, r2SCAN double-hybrids, wr2SCAN        
                                                                         
We gratefully acknowledge several colleagues who have allowed us to      
interface, adapt or use parts of their codes:                            
  Ed Valeev, F. Pavosevic, A. Kumar             : LibInt (2-el integral package), F12 methods 
  Garnet Chan, S. Sharma, J. Yang, R. Olivares  : DMRG                   
  Ulf Ekstrom                                   : XCFun DFT Library      
  Mihaly Kallay                                 : mrcc  (arbitrary order and MRCC methods)
  Frank Weinhold                                : gennbo (NPA and NBO analysis)           
  Simon Mueller                                 : openCOSMO-RS                            
  Christopher J. Cramer and Donald G. Truhlar   : smd solvation model                     
  S Lehtola, MJT Oliveira, MAL Marques          : LibXC Library                           
  Liviu Ungur et al                             : ANISO software                          


 Your calculation uses the libint2 library for the computation of 2-el integrals
 For citations please refer to: http://libint.valeyev.net

 Your ORCA version has been built with support for libXC version: 6.2.2
 For citations please refer to: https://libxc.gitlab.io

 This ORCA versions uses:
   CBLAS   interface :  Fast vector & matrix operations
   LAPACKE interface :  Fast linear algebra routines
   SCALAPACK package :  Parallel linear algebra routines
   Shared memory     :  Shared parallel matrices
   BLAS/LAPACK       :  OpenBLAS 0.3.27  USE64BITINT DYNAMIC_ARCH NO_AFFINITY SkylakeX SINGLE_THREADED
        Core in use  :  SkylakeX
   Copyright (c) 2011-2014, The OpenBLAS Project


Your calculation utilizes the atom-pairwise dispersion correction
with the Becke-Johnson damping scheme (D3BJ)


Warning: RI is on but no J-basis has been assigned. Assigning Def2/J (nothing to worry about!)
================================================================================

----- Orbital basis set information -----
Your calculation utilizes the basis: def2-SVP
   F. Weigend and R. Ahlrichs, Phys. Chem. Chem. Phys. 7, 3297 (2005).

----- AuxJ basis set information -----
Your calculation utilizes the auxiliary basis: def2/J
   F. Weigend, Phys. Chem. Chem. Phys. 8, 1057 (2006).

================================================================================
                                        WARNINGS
                       Please study these warnings very carefully!
================================================================================


WARNING: Geometry Optimization
  ===> : Switching off AutoStart
         For restart on a previous wavefunction, please use MOREAD

================================================================================
                                       INPUT FILE
================================================================================
NAME = p_toluidine_water_2.inp
|  1> ! B3LYP def2-SVP OPT TightSCF D3BJ
|  2> 
|  3> %pal
|  4> nprocs 28
|  5> end
|  6> 
|  7> * xyz 0 1
|  8> N          4.01505        6.27252        0.79497
|  9> C          8.24758        6.27245        0.82460
| 10> C          5.39107        6.27247        0.80373
| 11> C          7.51421        5.07684        0.82228
| 12> C          7.51421        7.46812        0.82163
| 13> C          6.12087        5.06672        0.81142
| 14> C          6.12091        7.47826        0.81076
| 15> C          9.75594        6.27261        0.79960
| 16> H          8.04779        4.12137        0.83112
| 17> H          8.04779        8.42361        0.82995
| 18> H          5.58394        4.11353        0.81341
| 19> H          5.58398        8.43145        0.81223
| 20> H         10.16826        7.16009        1.30533
| 21> H         10.16815        5.37986        1.29599
| 22> H         10.14620        6.27809       -0.23434
| 23> H          3.49789        7.13811        0.78995
| 24> H          3.49782        5.40697        0.79042
| 25> O          4.04920        6.77139       -0.23681
| 26> H          4.61704        7.47504       -0.57934
| 27> H          4.35990        5.98861       -0.71174
| 28> *
| 29> 
| 30>                          ****END OF INPUT****
================================================================================

                       *****************************
                       * Geometry Optimization Run *
                       *****************************

Geometry optimization settings:
Update method            Update   .... BFGS
Choice of coordinates    CoordSys .... (2022) Redundant Internals
Initial Hessian          InHess   .... Almloef's Model
Max. no of cycles        MaxIter  .... 60

Convergence Tolerances:
Energy Change            TolE     ....  5.0000e-06 Eh
Max. Gradient            TolMAXG  ....  3.0000e-04 Eh/bohr
RMS Gradient             TolRMSG  ....  1.0000e-04 Eh/bohr
Max. Displacement        TolMAXD  ....  4.0000e-03 bohr
RMS Displacement         TolRMSD  ....  2.0000e-03 bohr
Strict Convergence                .... False

------------------------------------------------------------------------------
                        ORCA OPTIMIZATION COORDINATE SETUP
------------------------------------------------------------------------------

The optimization will be done in redundant internal coordinates (2022)
Making redundant internal coordinates   ...  (2022 redundants) done
Evaluating the initial hessian          ...  (Almloef) done
Evaluating the coordinates              ...  done
Calculating the B-matrix                .... done
Calculating the G-matrix                .... done
Diagonalizing the G-matrix              .... done
The first mode is                       ....   68
The number of degrees of freedom        ....   54

    -----------------------------------------------------------------
                    Redundant Internal Coordinates


    -----------------------------------------------------------------
         Definition                    Initial Value    Approx d2E/dq
    -----------------------------------------------------------------
      1. B(C   2,N   0)                  1.3760         0.589027   
      2. B(C   3,C   1)                  1.4026         0.596509   
      3. B(C   4,C   1)                  1.4027         0.596394   
      4. B(C   5,C   2)                  1.4094         0.581748   
      5. B(C   5,C   3)                  1.3934         0.616998   
      6. B(C   6,C   4)                  1.3934         0.617088   
      7. B(C   6,C   2)                  1.4095         0.581638   
      8. B(C   7,C   1)                  1.5086         0.404178   
      9. B(H   8,C   3)                  1.0944         0.354328   
     10. B(H   9,C   4)                  1.0944         0.354310   
     11. B(H  10,C   5)                  1.0940         0.354828   
     12. B(H  11,C   6)                  1.0940         0.354829   
     13. B(H  12,C   7)                  1.1015         0.345153   
     14. B(H  13,C   7)                  1.1015         0.345192   
     15. B(H  14,C   7)                  1.1052         0.340601   
     16. B(H  15,N   0)                  1.0083         0.435374   
     17. B(H  16,N   0)                  1.0083         0.435375   
     18. B(O  17,H  15)                  1.2217         0.198778   
     19. B(O  17,C   2)                  1.7698         0.138643   
     20. B(O  17,N   0)                  1.1466         1.225745   
     21. B(H  18,O  17)                  0.9669         0.506945   
     22. B(H  19,O  17)                  0.9669         0.506998   
     23. A(C   2,N   0,O  17)           88.6225         0.477173   
     24. A(C   2,N   0,H  16)          120.8602         0.355930   
     25. A(H  15,N   0,H  16)          118.2796         0.303854   
     26. A(H  16,N   0,O  17)          112.6256         0.401444   
     27. A(H  15,N   0,O  17)           68.7332         0.401443   
     28. A(C   2,N   0,H  15)          120.8599         0.355930   
     29. A(C   3,C   1,C   4)          116.9522         0.428070   
     30. A(C   3,C   1,C   7)          121.5237         0.399490   
     31. A(C   4,C   1,C   7)          121.5097         0.399476   
     32. A(C   5,C   2,O  17)          129.5659         0.329338   
     33. A(C   6,C   2,O  17)           98.8801         0.329328   
     34. A(N   0,C   2,O  17)           40.3650         0.328032   
     35. A(N   0,C   2,C   6)          121.1846         0.422425   
     36. A(C   5,C   2,C   6)          117.6266         0.424246   
     37. A(N   0,C   2,C   5)          121.1883         0.422439   
     38. A(C   1,C   3,C   5)          121.9402         0.430687   
     39. A(C   5,C   3,H   8)          118.7671         0.351657   
     40. A(C   1,C   3,H   8)          119.2926         0.349657   
     41. A(C   1,C   4,C   6)          121.9400         0.430683   
     42. A(C   6,C   4,H   9)          118.7656         0.351662   
     43. A(C   1,C   4,H   9)          119.2943         0.349642   
     44. A(C   2,C   5,H  10)          119.4225         0.348265   
     45. A(C   2,C   5,C   3)          120.7703         0.428755   
     46. A(C   3,C   5,H  10)          119.8066         0.351741   
     47. A(C   4,C   6,H  11)          119.8077         0.351749   
     48. A(C   2,C   6,C   4)          120.7698         0.428751   
     49. A(C   2,C   6,H  11)          119.4219         0.348254   
     50. A(H  13,C   7,H  14)          107.0662         0.286414   
     51. A(H  12,C   7,H  14)          107.0588         0.286409   
     52. A(C   1,C   7,H  14)          111.6283         0.325551   
     53. A(C   1,C   7,H  13)          111.5072         0.326269   
     54. A(C   1,C   7,H  12)          111.5146         0.326262   
     55. A(H  12,C   7,H  13)          107.8188         0.287008   
     56. A(N   0,H  15,O  17)           60.9924         0.268919   
     57. A(H  18,O  17,H  19)          103.0880         0.319184   
     58. A(C   2,O  17,H  19)           79.4509         0.288147   
     59. A(N   0,O  17,H  19)           95.7013         0.412402   
     60. A(H  15,O  17,H  18)          110.1384         0.275225   
     61. A(C   2,O  17,H  18)           88.1754         0.288142   
     62. A(N   0,O  17,H  18)          130.7624         0.412394   
     63. A(C   2,O  17,H  15)           86.1381         0.250115   
     64. A(H  15,O  17,H  19)          143.2091         0.275229   
     65. A(N   0,O  17,H  15)           50.2745         0.350640   
     66. A(N   0,O  17,C   2)           51.0125         0.368790   
     67. D(C   5,C   2,N   0,H  16)     -0.2279         0.032586   
     68. D(C   6,C   2,N   0,O  17)     64.3135         0.032586   
     69. D(C   6,C   2,N   0,H  15)      0.2276         0.032586   
     70. D(C   6,C   2,N   0,H  16)   -179.9700         0.032586   
     71. D(C   5,C   2,N   0,O  17)   -115.9444         0.032586   
     72. D(C   5,C   2,N   0,H  15)    179.9697         0.032586   
     73. D(C   5,C   3,C   1,C   4)      0.2829         0.024514   
     74. D(C   5,C   3,C   1,C   7)   -178.3608         0.024514   
     75. D(H   8,C   3,C   1,C   4)   -179.6005         0.024514   
     76. D(H   8,C   3,C   1,C   7)      1.7559         0.024514   
     77. D(H   9,C   4,C   1,C   7)     -1.7557         0.024504   
     78. D(C   6,C   4,C   1,C   3)     -0.2831         0.024504   
     79. D(H   9,C   4,C   1,C   3)    179.6005         0.024504   
     80. D(C   6,C   4,C   1,C   7)    178.3607         0.024504   
     81. D(H  10,C   5,C   3,H   8)      0.0931         0.026327   
     82. D(H  10,C   5,C   3,C   1)   -179.7908         0.026327   
     83. D(C   2,C   5,C   3,C   1)     -0.0688         0.026327   
     84. D(C   3,C   5,C   2,N   0)   -179.9036         0.025256   
     85. D(H  10,C   5,C   2,C   6)    179.5705         0.025256   
     86. D(C   2,C   5,C   3,H   8)    179.8151         0.026327   
     87. D(H  10,C   5,C   2,N   0)     -0.1805         0.025256   
     88. D(C   3,C   5,C   2,O  17)    131.0303         0.025256   
     89. D(C   3,C   5,C   2,C   6)     -0.1526         0.025256   
     90. D(C   2,C   6,C   4,H   9)   -179.8149         0.026335   
     91. D(C   2,C   6,C   4,C   1)      0.0692         0.026335   
     92. D(H  11,C   6,C   2,C   5)   -179.5704         0.025246   
     93. D(C   4,C   6,C   2,N   0)    179.9033         0.025246   
     94. D(C   4,C   6,C   2,O  17)   -143.8876         0.025246   
     95. D(H  11,C   6,C   2,N   0)      0.1806         0.025246   
     96. D(H  11,C   6,C   4,C   1)    179.7909         0.026335   
     97. D(C   4,C   6,C   2,C   5)      0.1524         0.025246   
     98. D(H  11,C   6,C   4,H   9)     -0.0933         0.026335   
     99. D(H  14,C   7,C   1,C   3)     89.6096         0.012113   
    100. D(H  13,C   7,C   1,C   4)    151.3202         0.012113   
    101. D(H  13,C   7,C   1,C   3)    -30.0980         0.012113   
    102. D(H  12,C   7,C   1,C   4)     30.7310         0.012113   
    103. D(H  12,C   7,C   1,C   3)   -150.6872         0.012113   
    104. D(O  17,H  15,N   0,H  16)   -105.0331         0.243442   
    105. D(O  17,H  15,N   0,C   2)     74.7743         0.243442   
    106. D(H  19,O  17,H  15,N   0)     26.4299         0.040331   
    107. D(C   2,O  17,H  15,N   0)    -40.2009         0.040331   
    108. D(H  18,O  17,C   2,C   5)   -116.2424         0.002957   
    109. D(H  18,O  17,C   2,N   0)    150.0221         0.002957   
    110. D(H  15,O  17,C   2,C   6)    -89.0166         0.002957   
    111. D(H  15,O  17,C   2,C   5)    133.4293         0.002957   
    112. D(H  15,O  17,C   2,N   0)     39.6939         0.002957   
    113. D(N   0,O  17,C   2,C   6)   -128.7105         0.002957   
    114. D(N   0,O  17,C   2,C   5)     93.7354         0.002957   
    115. D(H  18,O  17,N   0,H  16)   -164.3337         0.220337   
    116. D(H  18,O  17,N   0,H  15)     82.8011         0.220337   
    117. D(H  18,O  17,N   0,C   2)    -41.2508         0.220337   
    118. D(H  15,O  17,N   0,H  16)    112.8652         0.220337   
    119. D(H  15,O  17,N   0,C   2)   -124.0518         0.220337   
    120. D(H  18,O  17,H  15,N   0)   -126.8330         0.040331   
    121. D(C   2,O  17,N   0,H  16)   -123.0830         0.220337   
    122. D(C   2,O  17,N   0,H  15)    124.0518         0.220337   
    -----------------------------------------------------------------

Number of atoms                         .... 20
Number of degrees of freedom            .... 122


         *************************************************************
         *                GEOMETRY OPTIMIZATION CYCLE   1            *
         *************************************************************
---------------------------------
CARTESIAN COORDINATES (ANGSTROEM)
---------------------------------
  N      4.015050    6.272520    0.794970
  C      8.247580    6.272450    0.824600
  C      5.391070    6.272470    0.803730
  C      7.514210    5.076840    0.822280
  C      7.514210    7.468120    0.821630
  C      6.120870    5.066720    0.811420
  C      6.120910    7.478260    0.810760
  C      9.755940    6.272610    0.799600
  H      8.047790    4.121370    0.831120
  H      8.047790    8.423610    0.829950
  H      5.583940    4.113530    0.813410
  H      5.583980    8.431450    0.812230
  H     10.168260    7.160090    1.305330
  H     10.168150    5.379860    1.295990
  H     10.146200    6.278090   -0.234340
  H      3.497890    7.138110    0.789950
  H      3.497820    5.406970    0.790420
  O      4.049200    6.771390   -0.236810
  H      4.617040    7.475040   -0.579340
  H      4.359900    5.988610   -0.711740

----------------------------
CARTESIAN COORDINATES (A.U.)
----------------------------
  NO LB      ZA    FRAG     MASS         X           Y           Z
   0 N     7.0000    0    14.007    7.587345   11.853345    1.502276
   1 C     6.0000    0    12.011   15.585667   11.853213    1.558268
   2 C     6.0000    0    12.011   10.187646   11.853250    1.518830
   3 C     6.0000    0    12.011   14.199799    9.593837    1.553884
   4 C     6.0000    0    12.011   14.199799   14.112702    1.552656
   5 C     6.0000    0    12.011   11.566768    9.574713    1.533362
   6 C     6.0000    0    12.011   11.566844   14.131863    1.532114
   7 C     6.0000    0    12.011   18.436055   11.853515    1.511025
   8 H     1.0000    0     1.008   15.208119    7.788261    1.570589
   9 H     1.0000    0     1.008   15.208119   15.918316    1.568378
  10 H     1.0000    0     1.008   10.552117    7.773445    1.537122
  11 H     1.0000    0     1.008   10.552193   15.933131    1.534892
  12 H     1.0000    0     1.008   19.215227   13.530609    2.466716
  13 H     1.0000    0     1.008   19.215019   10.166462    2.449066
  14 H     1.0000    0     1.008   19.173539   11.863871   -0.442838
  15 H     1.0000    0     1.008    6.610054   13.489073    1.492789
  16 H     1.0000    0     1.008    6.609922   10.217693    1.493677
  17 O     8.0000    0    15.999    7.651879   12.796073   -0.447506
  18 H     1.0000    0     1.008    8.724941   14.125778   -1.094794
  19 H     1.0000    0     1.008    8.239017   11.316833   -1.344994

--------------------------------
INTERNAL COORDINATES (ANGSTROEM)
--------------------------------
 N      0   0   0     0.000000000000     0.00000000     0.00000000
 C      1   0   0     4.232633712324     0.00000000     0.00000000
 C      1   2   0     1.376047884523     0.03636191     0.00000000
 C      2   1   3     1.402611924732    58.47672373   271.65281649
 C      2   1   3     1.402664295796    58.47592272    91.89135821
 C      4   2   1     1.393419071780   121.94023040     0.05473988
 C      5   2   1     1.393379297428   121.93999491   359.94503003
 C      2   1   3     1.508567172916   178.64933676     2.08565945
 H      4   2   1     1.094398776909   119.29260163   180.17143386
 H      5   2   1     1.094412161345   119.29430545   179.82860000
 H      6   4   2     1.094015064384   119.80662483   180.20921931
 H      7   5   2     1.094014242092   119.80772588   179.79088957
 H      8   2   4     1.101540451232   111.51456992   209.31277607
 H      8   2   4     1.101509273089   111.50715734   329.90202436
 H      8   2   4     1.105153754733   111.62828557    89.60962729
 H      1   2   4     1.008328177777   120.85886330   179.95779556
 H      1   2   4     1.008327515195   120.86140635   359.80365256
 O      1   2   4     1.146563329171    88.65473318   244.06582150
 H     18   1   2     0.966898334366   130.76235700   318.76608099
 H     18   1   2     0.966869961939    95.70127607    71.50408046

---------------------------
INTERNAL COORDINATES (A.U.)
---------------------------
 N      0   0   0     0.000000000000     0.00000000     0.00000000
 C      1   0   0     7.998518541494     0.00000000     0.00000000
 C      1   2   0     2.600353648910     0.03636191     0.00000000
 C      2   1   3     2.650552409915    58.47672373   271.65281649
 C      2   1   3     2.650651376883    58.47592272    91.89135821
 C      4   2   1     2.633180435447   121.94023040     0.05473988
 C      5   2   1     2.633105272814   121.93999491   359.94503003
 C      2   1   3     2.850778811435   178.64933676     2.08565945
 H      4   2   1     2.068113969656   119.29260163   180.17143386
 H      5   2   1     2.068139262575   119.29430545   179.82860000
 H      6   4   2     2.067388858071   119.80662483   180.20921931
 H      7   5   2     2.067387304163   119.80772588   179.79088957
 H      8   2   4     2.081609778264   111.51456992   209.31277607
 H      8   2   4     2.081550860112   111.50715734   329.90202436
 H      8   2   4     2.088437932320   111.62828557    89.60962729
 H      1   2   4     1.905464109115   120.85886330   179.95779556
 H      1   2   4     1.905462857017   120.86140635   359.80365256
 O      1   2   4     2.166690687330    88.65473318   244.06582150
 H     18   1   2     1.827173051297   130.76235700   318.76608099
 H     18   1   2     1.827119435180    95.70127607    71.50408046

---------------------
BASIS SET INFORMATION
---------------------
There are 4 groups of distinct atoms

 Group   1 Type N   : 7s4p1d contracted to 3s2p1d pattern {511/31/1}
 Group   2 Type C   : 7s4p1d contracted to 3s2p1d pattern {511/31/1}
 Group   3 Type H   : 4s1p contracted to 2s1p pattern {31/1}
 Group   4 Type O   : 7s4p1d contracted to 3s2p1d pattern {511/31/1}

Atom   0N    basis set group =>   1
Atom   1C    basis set group =>   2
Atom   2C    basis set group =>   2
Atom   3C    basis set group =>   2
Atom   4C    basis set group =>   2
Atom   5C    basis set group =>   2
Atom   6C    basis set group =>   2
Atom   7C    basis set group =>   2
Atom   8H    basis set group =>   3
Atom   9H    basis set group =>   3
Atom  10H    basis set group =>   3
Atom  11H    basis set group =>   3
Atom  12H    basis set group =>   3
Atom  13H    basis set group =>   3
Atom  14H    basis set group =>   3
Atom  15H    basis set group =>   3
Atom  16H    basis set group =>   3
Atom  17O    basis set group =>   4
Atom  18H    basis set group =>   3
Atom  19H    basis set group =>   3
---------------------------------
AUXILIARY/J BASIS SET INFORMATION
---------------------------------
There are 4 groups of distinct atoms

 Group   1 Type N   : 12s5p4d2f1g contracted to 6s4p3d1f1g pattern {711111/2111/211/2/1}
 Group   2 Type C   : 12s5p4d2f1g contracted to 6s4p3d1f1g pattern {711111/2111/211/2/1}
 Group   3 Type H   : 5s2p1d contracted to 3s1p1d pattern {311/2/1}
 Group   4 Type O   : 12s5p4d2f1g contracted to 6s4p3d1f1g pattern {711111/2111/211/2/1}

Atom   0N    basis set group =>   1
Atom   1C    basis set group =>   2
Atom   2C    basis set group =>   2
Atom   3C    basis set group =>   2
Atom   4C    basis set group =>   2
Atom   5C    basis set group =>   2
Atom   6C    basis set group =>   2
Atom   7C    basis set group =>   2
Atom   8H    basis set group =>   3
Atom   9H    basis set group =>   3
Atom  10H    basis set group =>   3
Atom  11H    basis set group =>   3
Atom  12H    basis set group =>   3
Atom  13H    basis set group =>   3
Atom  14H    basis set group =>   3
Atom  15H    basis set group =>   3
Atom  16H    basis set group =>   3
Atom  17O    basis set group =>   4
Atom  18H    basis set group =>   3
Atom  19H    basis set group =>   3


           ************************************************************
           *        Program running with 28 parallel MPI-processes    *
           *              working on a common directory               *
           ************************************************************
------------------------------------------------------------------------------
                             ORCA STARTUP CALCULATIONS
                           -- RI-GTO INTEGRALS CHOSEN --
------------------------------------------------------------------------------
------------------------------------------------------------------------------
                   ___                                                        
                  /   \      - P O W E R E D   B Y -                         
                 /     \                                                     
                 |  |  |   _    _      __       _____    __    __             
                 |  |  |  | |  | |    /  \     |  _  \  |  |  /  |          
                  \  \/   | |  | |   /    \    | | | |  |  | /  /          
                 / \  \   | |__| |  /  /\  \   | |_| |  |  |/  /          
                |  |  |   |  __  | /  /__\  \  |    /   |      \           
                |  |  |   | |  | | |   __   |  |    \   |  |\   \          
                \     /   | |  | | |  |  |  |  | |\  \  |  | \   \       
                 \___/    |_|  |_| |__|  |__|  |_| \__\ |__|  \__/        
                                                                              
                      - O R C A' S   B I G   F R I E N D -                    
                                      &                                       
                       - I N T E G R A L  F E E D E R -                       
                                                                              
 v1 FN, 2020, v2 2021, v3 2022-2024                                           
------------------------------------------------------------------------------


----------------------
SHARK INTEGRAL PACKAGE
----------------------

Number of atoms                             ...     20
Number of basis functions                   ...    181
Number of shells                            ...     87
Maximum angular momentum                    ...      2
Integral batch strategy                     ... SHARK/LIBINT Hybrid
RI-J (if used) integral strategy            ... SPLIT-RIJ (Revised 2003 algorithm where possible)
Printlevel                                  ...      1
Contraction scheme used                     ... SEGMENTED contraction
Prescreening option                         ... SCHWARTZ
   Thresh                                   ... 2.500e-11
   Tcut                                     ... 2.500e-12
   Tpresel                                  ... 2.500e-12 
Coulomb Range Separation                    ... NOT USED
Exchange Range Separation                   ... NOT USED
Multipole approximations                    ... NOT USED
Finite Nucleus Model                        ... NOT USED
CABS basis                                  ... NOT available
Auxiliary Coulomb fitting basis             ... AVAILABLE
   # of basis functions in Aux-J            ...    562
   # of shells in Aux-J                     ...    190
   Maximum angular momentum in Aux-J        ...      4
Auxiliary J/K fitting basis                 ... NOT available
Auxiliary Correlation fitting basis         ... NOT available
Auxiliary 'external' fitting basis          ... NOT available

Checking pre-screening integrals            ... done (  0.0 sec) Dimension = 87
Check shell pair data                       ... done (  0.0 sec)
Shell pair information
Shell pair cut-off parameter TPreSel        ...   2.5e-12
Total number of shell pairs                 ...      3828
Shell pairs after pre-screening             ...      3529
Total number of primitive shell pairs       ...     13516
Primitive shell pairs kept                  ...      9160
          la=0 lb=0:   1140 shell pairs
          la=1 lb=0:   1309 shell pairs
          la=1 lb=1:    394 shell pairs
          la=2 lb=0:    405 shell pairs
          la=2 lb=1:    238 shell pairs
          la=2 lb=2:     43 shell pairs

Calculating one electron integrals          ... done (  0.0 sec)
Calculating RI/J V-Matrix + Cholesky decomp.... done (  0.0 sec)
Calculating Nuclear repulsion               ... done (  0.0 sec) ENN=    467.735645457452 Eh

Diagonalization of the overlap matrix:
Smallest eigenvalue                        ... 2.593e-04
Time for diagonalization                   ...    0.003 sec
Threshold for overlap eigenvalues          ... 1.000e-07
Number of eigenvalues below threshold      ... 0
Time for construction of square roots      ...    0.001 sec
Total time needed                          ...    0.005 sec

-------------------
DFT GRID GENERATION
-------------------

General Integration Accuracy     IntAcc      ... 4.388
Radial Grid Type                 RadialGrid  ... OptM3 with GC (2021)
Angular Grid (max. ang.)         AngularGrid ... 4 (Lebedev-302)
Angular grid pruning method      GridPruning ... 4 (adaptive)
Weight generation scheme         WeightScheme... mBecke (2022)
Basis function cutoff            BFCut       ... 1.0000e-11
Integration weight cutoff        WCut        ... 1.0000e-14
Partially contracted basis set               ... off
Rotationally invariant grid construction     ... off
Angular grids for H and He will be reduced by one unit

Total number of grid points                  ...    89084
Total number of batches                      ...     1399
Average number of points per batch           ...       63
Average number of grid points per atom       ...     4454

--------------------
COSX GRID GENERATION
--------------------

GRIDX 1
-------
General Integration Accuracy     IntAcc      ... 3.816
Radial Grid Type                 RadialGrid  ... OptM3 with GC (2021)
Angular Grid (max. ang.)         AngularGrid ... 1 (Lebedev-50)
Angular grid pruning method      GridPruning ... 4 (adaptive)
Weight generation scheme         WeightScheme... mBecke (2022)
Basis function cutoff            BFCut       ... 1.0000e-11
Integration weight cutoff        WCut        ... 1.0000e-14
Partially contracted basis set               ... on
Rotationally invariant grid construction     ... off
Angular grids for H and He will be reduced by one unit

Total number of grid points                  ...    11427
Total number of batches                      ...      100
Average number of points per batch           ...      114
Average number of grid points per atom       ...      571
UseSFitting                                  ... on

GRIDX 2
-------
General Integration Accuracy     IntAcc      ... 4.020
Radial Grid Type                 RadialGrid  ... OptM3 with GC (2021)
Angular Grid (max. ang.)         AngularGrid ... 2 (Lebedev-110)
Angular grid pruning method      GridPruning ... 4 (adaptive)
Weight generation scheme         WeightScheme... mBecke (2022)
Basis function cutoff            BFCut       ... 1.0000e-11
Integration weight cutoff        WCut        ... 1.0000e-14
Partially contracted basis set               ... on
Rotationally invariant grid construction     ... off
Angular grids for H and He will be reduced by one unit

Total number of grid points                  ...    24263
Total number of batches                      ...      199
Average number of points per batch           ...      121
Average number of grid points per atom       ...     1213
UseSFitting                                  ... on

GRIDX 3
-------
General Integration Accuracy     IntAcc      ... 4.338
Radial Grid Type                 RadialGrid  ... OptM3 with GC (2021)
Angular Grid (max. ang.)         AngularGrid ... 3 (Lebedev-194)
Angular grid pruning method      GridPruning ... 4 (adaptive)
Weight generation scheme         WeightScheme... mBecke (2022)
Basis function cutoff            BFCut       ... 1.0000e-11
Integration weight cutoff        WCut        ... 1.0000e-14
Partially contracted basis set               ... on
Rotationally invariant grid construction     ... off
Angular grids for H and He will be reduced by one unit

Total number of grid points                  ...    53163
Total number of batches                      ...      423
Average number of points per batch           ...      125
Average number of grid points per atom       ...     2658
UseSFitting                                  ... on
Initializing property integral containers    ... done (  0.0 sec)

SHARK setup successfully completed in   0.7 seconds

Maximum memory used throughout the entire STARTUP-calculation: 22.3 MB


           ************************************************************
           *        Program running with 28 parallel MPI-processes    *
           *              working on a common directory               *
           ************************************************************
-------------------------------------------------------------------------------
                                 ORCA GUESS
                   Start orbitals & Density for SCF / CASSCF
-------------------------------------------------------------------------------

------------
SCF SETTINGS
------------
Hamiltonian:
 Density Functional     Method          .... DFT(GTOs)
 Exchange Functional    Exchange        .... B88
   X-Alpha parameter    XAlpha          ....  0.666667
   Becke's b parameter  XBeta           ....  0.004200
 Correlation Functional Correlation     .... LYP
 LDA part of GGA corr.  LDAOpt          .... VWN-5
 Gradients option       PostSCFGGA      .... off
 Hybrid DFT is turned on
   Fraction HF Exchange ScalHFX         ....  0.200000
   Scaling of DF-GGA-X  ScalDFX         ....  0.720000
   Scaling of DF-GGA-C  ScalDFC         ....  0.810000
   Scaling of DF-LDA-C  ScalLDAC        ....  1.000000
   Perturbative correction              ....  0.000000
   NL short-range parameter             ....  4.800000
 RI-approximation to the Coulomb term is turned on
   Number of AuxJ basis functions       .... 562
   RIJ-COSX (HFX calculated with COS-X)).... on


General Settings:
 Integral files         IntName         .... p_toluidine_water_2
 Hartree-Fock type      HFTyp           .... RHF
 Total Charge           Charge          ....    0
 Multiplicity           Mult            ....    1
 Number of Electrons    NEL             ....   68
 Basis Dimension        Dim             ....  181
 Nuclear Repulsion      ENuc            ....    467.7356454575 Eh

Convergence Acceleration:
 AO-DIIS                CNVDIIS         .... on
   Start iteration      DIISMaxIt       ....    12
   Startup error        DIISStart       ....  0.200000
   # of expansion vecs  DIISMaxEq       ....     5
   Bias factor          DIISBfac        ....   1.050
   Max. coefficient     DIISMaxC        ....  10.000
 MO-DIIS                CNVKDIIS        .... off
 Trust-Rad. Augm. Hess. CNVTRAH         .... auto
   Auto Start mean grad. ratio tolernc. ....  1.125000
   Auto Start start iteration           ....    50
   Auto Start num. interpolation iter.  ....    10
   Max. Number of Micro iterations      ....    24
   Max. Number of Macro iterations      .... Maxiter - #DIIS iter
   Number of Davidson start vectors     ....     2
   Converg. threshold    (grad. norm)   ....   1.000e-05
   Grad. Scal. Fac. for Micro threshold ....   0.100
   Minimum threshold for Micro iter.    ....   1.000e-02
   NR start threshold (gradient norm)   ....   1.000e-04
   Initial trust radius                 ....   0.400
   Minimum AH scaling param. (alpha)    ....   1.000
   Maximum AH scaling param. (alpha)    .... 1000.000
   Quad. conv. algorithm                .... NR
   White noise on init. David. guess    .... on
   Maximum white noise                  ....   0.010
   Pseudo random numbers                .... off
   Inactive MOs                         .... canonical
   Orbital update algorithm             .... Taylor
   Preconditioner                       .... Diag
   Full preconditioner red. dimension   ....   250
 SOSCF                  CNVSOSCF        .... on
   Start iteration      SOSCFMaxIt      ....   150
   Startup grad/error   SOSCFStart      ....  0.003300
   Hessian update       SOSCFHessUp     .... L-BFGS
 Level Shifting         CNVShift        .... on
   Level shift para.    LevelShift      ....    0.2500
   Turn off err/grad.   ShiftErr        ....    0.0010
 Zerner damping         CNVZerner       .... off
 Static damping         CNVDamp         .... on
   Fraction old density DampFac         ....    0.7000
   Max. Damping (<1)    DampMax         ....    0.9800
   Min. Damping (>=0)   DampMin         ....    0.0000
   Turn off err/grad.   DampErr         ....    0.1000

SCF Procedure:
 Maximum # iterations   MaxIter         ....   125
 SCF integral mode      SCFMode         .... Direct
   Integral package                     .... SHARK and LIBINT hybrid scheme
 Reset frequency        DirectResetFreq ....    20
 Integral Threshold     Thresh          ....  2.500e-11 Eh
 Primitive CutOff       TCut            ....  2.500e-12 Eh

Convergence Tolerance:
 Convergence Check Mode ConvCheckMode   .... Total+1el-Energy
 Convergence forced     ConvForced      .... 0
 Energy Change          TolE            ....  1.000e-08 Eh
 1-El. energy change                    ....  1.000e-05 Eh
 Orbital Gradient       TolG            ....  1.000e-05
 Orbital Rotation angle TolX            ....  1.000e-05
 DIIS Error             TolErr          ....  5.000e-07

------------------------------
INITIAL GUESS: MODEL POTENTIAL
------------------------------
Loading Hartree-Fock densities                     ... done
Calculating cut-offs                               ... done
Initializing the effective Hamiltonian             ... done
Setting up the integral package (SHARK)            ... done
Starting the Coulomb interaction                   ... done (   0.0 sec)
Making the grid                                    ... done (   0.1 sec)
Mapping shells                                     ... done
Starting the XC term evaluation                    ... done (   0.0 sec)
  promolecular density results
     # of electrons  =     67.997408452
     EX              =    -54.359212525
     EC              =     -2.299960951
     EX+EC           =    -56.659173477
Transforming the Hamiltonian                       ... done (   0.0 sec)
Diagonalizing the Hamiltonian                      ... done (   0.0 sec)
Back transforming the eigenvectors                 ... done (   0.0 sec)
Now organizing SCF variables                       ... done
                      ------------------
                      INITIAL GUESS DONE (   0.1 sec)
                      ------------------
             **** ENERGY FILE WAS UPDATED (p_toluidine_water_2.en.tmp) ****
Finished Guess after   1.0 sec
Maximum memory used throughout the entire GUESS-calculation: 12.9 MB


           ************************************************************
           *        Program running with 28 parallel MPI-processes    *
           *              working on a common directory               *
           ************************************************************

-------------------------------------------------------------------------------------------
                                      ORCA LEAN-SCF
                              memory conserving SCF solver
-------------------------------------------------------------------------------------------

----------------------------------------D-I-I-S--------------------------------------------
Iteration    Energy (Eh)           Delta-E    RMSDP     MaxDP     DIISErr   Damp  Time(sec)
-------------------------------------------------------------------------------------------
               ***  Starting incremental Fock matrix formation  ***
    1    -401.4107056278109553     0.00e+00  1.19e-02  3.19e-01  2.43e-01  0.700   0.3
Warning: op=0 Small HOMO/LUMO gap (   0.035) - skipping pre-diagonalization
         Will do a full diagonalization
    2    -401.7970376622936897    -3.86e-01  8.89e-03  2.47e-01  1.01e-01  0.700   0.2
                               ***Turning on AO-DIIS***
    3    -401.8921345114844712    -9.51e-02  5.92e-03  1.86e-01  5.14e-02  0.700   0.4
    4    -401.9438254785695221    -5.17e-02  1.32e-02  4.06e-01  3.68e-02  0.000   0.2
    5    -402.0887358574859149    -1.45e-01  4.29e-03  1.40e-01  3.67e-02  0.000   0.2
    6    -402.1161623894122954    -2.74e-02  3.04e-03  9.22e-02  1.48e-02  0.000   0.2
    7    -402.1241654343943424    -8.00e-03  2.09e-03  6.60e-02  7.02e-03  0.000   0.2
    8    -402.1265760680151402    -2.41e-03  1.47e-03  4.93e-02  4.89e-03  0.000   0.2
                              *** Initializing SOSCF ***
---------------------------------------S-O-S-C-F--------------------------------------
Iteration    Energy (Eh)           Delta-E    RMSDP     MaxDP     MaxGrad    Time(sec)
--------------------------------------------------------------------------------------
    9    -402.1276296341426928    -1.05e-03  1.13e-03  4.06e-02  2.70e-03     0.2
               *** Restarting incremental Fock matrix formation ***
   10    -402.1279850930324642    -3.55e-04  2.28e-03  6.36e-02  4.61e-03     0.3
   11    -402.1282787175012459    -2.94e-04  1.24e-03  3.17e-02  3.90e-03     0.3
   12    -402.1286550863038087    -3.76e-04  4.32e-04  1.16e-02  6.44e-04     0.3
   13    -402.1286986320205301    -4.35e-05  2.10e-04  6.37e-03  5.51e-04     0.2
   14    -402.1287243652565735    -2.57e-05  1.64e-04  4.87e-03  3.11e-04     0.2
   15    -402.1287276850598005    -3.32e-06  6.39e-05  2.09e-03  1.69e-04     0.2
   16    -402.1287300643799085    -2.38e-06  4.59e-05  1.33e-03  5.26e-05     0.2
   17    -402.1287302625300413    -1.98e-07  2.23e-05  6.66e-04  5.60e-05     0.2
   18    -402.1287304414051391    -1.79e-07  1.34e-05  4.37e-04  1.99e-05     0.2
   19    -402.1287304627668959    -2.14e-08  4.69e-06  1.07e-04  2.02e-05     0.2
   20    -402.1287304878434838    -2.51e-08  2.92e-06  7.06e-05  6.68e-06     0.2
   21    -402.1287304907829707    -2.94e-09  1.30e-06  3.77e-05  4.14e-06     0.2
                 **** Energy Check signals convergence ****

               *****************************************************
               *                     SUCCESS                       *
               *           SCF CONVERGED AFTER  21 CYCLES          *
               *****************************************************

Recomputing exchange energy using gridx3       ... done (    0.318 sec)
Old exchange energy                            :    -11.019746745 Eh
New exchange energy                            :    -11.019736056 Eh
Exchange energy change after final integration :      0.000010688 Eh
Total energy after final integration           :   -402.128719802 Eh
             **** ENERGY FILE WAS UPDATED (p_toluidine_water_2.en.tmp) ****

----------------
TOTAL SCF ENERGY
----------------

Total Energy       :       -402.12871980236463 Eh          -10942.47877 eV

Components:
Nuclear Repulsion  :        467.73564545745177 Eh           12727.73398 eV
Electronic Energy  :       -869.86437594823474 Eh          -23670.21304 eV
One Electron Energy:      -1468.98254017458021 Eh          -39973.04711 eV
Two Electron Energy:        599.11816422634547 Eh           16302.83407 eV

Virial components:
Potential Energy   :       -802.89413849606444 Eh          -21847.86023 eV
Kinetic Energy     :        400.76541869369987 Eh           10905.38146 eV
Virial Ratio       :          2.00340174337673

DFT components:
N(Alpha)           :       34.000043493094 electrons
N(Beta)            :       34.000043493094 electrons
N(Total)           :       68.000086986188 electrons
E(X)               :      -43.814187460293 Eh       
E(C)               :       -2.703985416308 Eh       
E(XC)              :      -46.518172876601 Eh       

---------------
SCF CONVERGENCE
---------------

  Last Energy change         ...    2.9395e-09  Tolerance :   1.0000e-08
  Last MAX-Density change    ...    3.7691e-05  Tolerance :   1.0000e-07
  Last RMS-Density change    ...    1.3028e-06  Tolerance :   5.0000e-09
  Last DIIS Error            ...    2.6965e-03  Tolerance :   5.0000e-07
  Last Orbital Gradient      ...    4.1388e-06  Tolerance :   1.0000e-05
  Last Orbital Rotation      ...    2.8280e-05  Tolerance :   1.0000e-05


----------------
ORBITAL ENERGIES
----------------

  NO   OCC          E(Eh)            E(eV) 
   0   2.0000     -19.317635      -525.6596 
   1   2.0000     -14.480554      -394.0359 
   2   2.0000     -10.216996      -278.0186 
   3   2.0000     -10.179935      -277.0101 
   4   2.0000     -10.167044      -276.6593 
   5   2.0000     -10.166120      -276.6342 
   6   2.0000     -10.165012      -276.6041 
   7   2.0000     -10.158405      -276.4243 
   8   2.0000     -10.153620      -276.2941 
   9   2.0000      -1.435490       -39.0617 
  10   2.0000      -0.956688       -26.0328 
  11   2.0000      -0.866620       -23.5819 
  12   2.0000      -0.821935       -22.3660 
  13   2.0000      -0.789464       -21.4824 
  14   2.0000      -0.718626       -19.5548 
  15   2.0000      -0.708756       -19.2862 
  16   2.0000      -0.698869       -19.0172 
  17   2.0000      -0.626012       -17.0346 
  18   2.0000      -0.584353       -15.9010 
  19   2.0000      -0.546734       -14.8774 
  20   2.0000      -0.488044       -13.2804 
  21   2.0000      -0.462525       -12.5859 
  22   2.0000      -0.453594       -12.3429 
  23   2.0000      -0.420268       -11.4361 
  24   2.0000      -0.411146       -11.1879 
  25   2.0000      -0.403383       -10.9766 
  26   2.0000      -0.394961       -10.7474 
  27   2.0000      -0.364033        -9.9059 
  28   2.0000      -0.343495        -9.3470 
  29   2.0000      -0.331836        -9.0297 
  30   2.0000      -0.321451        -8.7471 
  31   2.0000      -0.241212        -6.5637 
  32   2.0000      -0.226693        -6.1686 
  33   2.0000      -0.075966        -2.0671 
  34   0.0000      -0.015449        -0.4204 
  35   0.0000       0.003498         0.0952 
  36   0.0000       0.018596         0.5060 
  37   0.0000       0.043852         1.1933 
  38   0.0000       0.072304         1.9675 
  39   0.0000       0.089620         2.4387 
  40   0.0000       0.098357         2.6764 
  41   0.0000       0.114318         3.1107 
  42   0.0000       0.135254         3.6804 
  43   0.0000       0.147414         4.0113 
  44   0.0000       0.153347         4.1728 
*Only the first 10 virtual orbitals were printed.

                    ********************************
                    * MULLIKEN POPULATION ANALYSIS *
                    ********************************

-----------------------
MULLIKEN ATOMIC CHARGES
-----------------------
   0 N :    0.447201
   1 C :   -0.039378
   2 C :   -0.136337
   3 C :   -0.060431
   4 C :    0.000889
   5 C :    0.072630
   6 C :   -0.140527
   7 C :    0.084006
   8 H :   -0.051391
   9 H :   -0.047677
  10 H :   -0.059901
  11 H :   -0.054628
  12 H :    0.002717
  13 H :    0.001797
  14 H :    0.013331
  15 H :   -0.247879
  16 H :   -0.089290
  17 O :    0.289928
  18 H :    0.238175
  19 H :   -0.223235
Sum of atomic charges:    0.0000000

--------------------------------
MULLIKEN REDUCED ORBITAL CHARGES
--------------------------------
  0 N s       :     3.139464  s :     3.139464
      pz      :     1.070596  p :     3.331956
      px      :     1.195955
      py      :     1.065405
      dz2     :     0.029077  d :     0.081379
      dxz     :     0.017193
      dyz     :     0.016512
      dx2y2   :     0.008240
      dxy     :     0.010358

  1 C s       :     3.045936  s :     3.045936
      pz      :     1.041065  p :     2.950469
      px      :     0.945168
      py      :     0.964236
      dz2     :     0.003030  d :     0.042973
      dxz     :     0.006131
      dyz     :     0.006848
      dx2y2   :     0.012989
      dxy     :     0.013974

  2 C s       :     2.985755  s :     2.985755
      pz      :     1.171821  p :     3.084532
      px      :     0.824349
      py      :     1.088362
      dz2     :     0.006454  d :     0.066049
      dxz     :     0.013171
      dyz     :     0.010549
      dx2y2   :     0.022480
      dxy     :     0.013396

  3 C s       :     3.214442  s :     3.214442
      pz      :     1.075033  p :     2.811494
      px      :     0.880820
      py      :     0.855641
      dz2     :     0.002625  d :     0.034495
      dxz     :     0.005747
      dyz     :     0.003598
      dx2y2   :     0.010905
      dxy     :     0.011619

  4 C s       :     3.214998  s :     3.214998
      pz      :     0.994217  p :     2.747245
      px      :     0.884845
      py      :     0.868183
      dz2     :     0.002627  d :     0.036869
      dxz     :     0.008228
      dyz     :     0.003594
      dx2y2   :     0.011296
      dxy     :     0.011125

  5 C s       :     3.222373  s :     3.222373
      pz      :     0.993181  p :     2.667378
      px      :     0.867490
      py      :     0.806706
      dz2     :     0.002673  d :     0.037620
      dxz     :     0.008740
      dyz     :     0.003843
      dx2y2   :     0.009342
      dxy     :     0.013021

  6 C s       :     3.199275  s :     3.199275
      pz      :     1.233275  p :     2.907681
      px      :     0.904969
      py      :     0.769437
      dz2     :     0.002883  d :     0.033571
      dxz     :     0.005594
      dyz     :     0.003645
      dx2y2   :     0.008154
      dxy     :     0.013296

  7 C s       :     2.931052  s :     2.931052
      pz      :     0.997732  p :     2.955793
      px      :     0.974680
      py      :     0.983381
      dz2     :     0.005645  d :     0.029149
      dxz     :     0.006868
      dyz     :     0.004399
      dx2y2   :     0.006858
      dxy     :     0.005378

  8 H s       :     1.028220  s :     1.028220
      pz      :     0.005565  p :     0.023171
      px      :     0.005942
      py      :     0.011664

  9 H s       :     1.024743  s :     1.024743
      pz      :     0.005035  p :     0.022934
      px      :     0.006244
      py      :     0.011655

 10 H s       :     1.036712  s :     1.036712
      pz      :     0.004966  p :     0.023189
      px      :     0.006179
      py      :     0.012044

 11 H s       :     1.028505  s :     1.028505
      pz      :     0.008659  p :     0.026123
      px      :     0.005337
      py      :     0.012126

 12 H s       :     0.974190  s :     0.974190
      pz      :     0.007131  p :     0.023093
      px      :     0.005294
      py      :     0.010667

 13 H s       :     0.975113  s :     0.975113
      pz      :     0.007058  p :     0.023090
      px      :     0.005280
      py      :     0.010752

 14 H s       :     0.963281  s :     0.963281
      pz      :     0.012714  p :     0.023388
      px      :     0.005339
      py      :     0.005335

 15 H s       :     1.176926  s :     1.176926
      pz      :     0.025920  p :     0.070953
      px      :     0.016538
      py      :     0.028495

 16 H s       :     1.044724  s :     1.044724
      pz      :     0.005367  p :     0.044565
      px      :     0.012561
      py      :     0.026638

 17 O s       :     3.424779  s :     3.424779
      pz      :     1.199340  p :     4.240813
      px      :     1.714626
      py      :     1.326847
      dz2     :     0.009501  d :     0.044481
      dxz     :     0.008767
      dyz     :     0.015617
      dx2y2   :     0.002301
      dxy     :     0.008294

 18 H s       :     0.682508  s :     0.682508
      pz      :     0.016415  p :     0.079317
      px      :     0.028830
      py      :     0.034072

 19 H s       :     1.144617  s :     1.144617
      pz      :     0.021122  p :     0.078617
      px      :     0.017061
      py      :     0.040435



                     *******************************
                     * LOEWDIN POPULATION ANALYSIS *
                     *******************************

----------------------
LOEWDIN ATOMIC CHARGES
----------------------
   0 N :    0.260114
   1 C :   -0.071894
   2 C :   -0.081928
   3 C :   -0.081497
   4 C :   -0.024943
   5 C :   -0.033018
   6 C :   -0.197244
   7 C :   -0.046630
   8 H :    0.016676
   9 H :    0.020651
  10 H :    0.013141
  11 H :    0.006920
  12 H :    0.024797
  13 H :    0.023519
  14 H :    0.025536
  15 H :   -0.177260
  16 H :   -0.061933
  17 O :    0.439740
  18 H :    0.094152
  19 H :   -0.148898

-------------------------------
LOEWDIN REDUCED ORBITAL CHARGES
-------------------------------
  0 N s       :     3.009345  s :     3.009345
      pz      :     1.154033  p :     3.537842
      px      :     1.226402
      py      :     1.157406
      dz2     :     0.074670  d :     0.192699
      dxz     :     0.033039
      dyz     :     0.034828
      dx2y2   :     0.021950
      dxy     :     0.028211

  1 C s       :     2.849716  s :     2.849716
      pz      :     1.017830  p :     3.114819
      px      :     1.024639
      py      :     1.072350
      dz2     :     0.007206  d :     0.107358
      dxz     :     0.010957
      dyz     :     0.014960
      dx2y2   :     0.036343
      dxy     :     0.037892

  2 C s       :     2.829957  s :     2.829957
      pz      :     1.088375  p :     3.091731
      px      :     0.882481
      py      :     1.120875
      dz2     :     0.014174  d :     0.160240
      dxz     :     0.027725
      dyz     :     0.021268
      dx2y2   :     0.058190
      dxy     :     0.038884

  3 C s       :     2.855277  s :     2.855277
      pz      :     1.057225  p :     3.134973
      px      :     1.043069
      py      :     1.034678
      dz2     :     0.006336  d :     0.091247
      dxz     :     0.012320
      dyz     :     0.007338
      dx2y2   :     0.031933
      dxy     :     0.033320

  4 C s       :     2.857780  s :     2.857780
      pz      :     0.985118  p :     3.071583
      px      :     1.046169
      py      :     1.040297
      dz2     :     0.006157  d :     0.095580
      dxz     :     0.018396
      dyz     :     0.007024
      dx2y2   :     0.032041
      dxy     :     0.031962

  5 C s       :     2.864696  s :     2.864696
      pz      :     0.990021  p :     3.070525
      px      :     1.066470
      py      :     1.014033
      dz2     :     0.006350  d :     0.097798
      dxz     :     0.018982
      dyz     :     0.008195
      dx2y2   :     0.027691
      dxy     :     0.036579

  6 C s       :     2.848957  s :     2.848957
      pz      :     1.208371  p :     3.256872
      px      :     1.054301
      py      :     0.994200
      dz2     :     0.006943  d :     0.091415
      dxz     :     0.012096
      dyz     :     0.008109
      dx2y2   :     0.025930
      dxy     :     0.038338

  7 C s       :     2.835184  s :     2.835184
      pz      :     1.061295  p :     3.137002
      px      :     1.019572
      py      :     1.056134
      dz2     :     0.014663  d :     0.074444
      dxz     :     0.016244
      dyz     :     0.011552
      dx2y2   :     0.018659
      dxy     :     0.013326

  8 H s       :     0.915322  s :     0.915322
      pz      :     0.017449  p :     0.068003
      px      :     0.017184
      py      :     0.033370

  9 H s       :     0.913173  s :     0.913173
      pz      :     0.014998  p :     0.066176
      px      :     0.017610
      py      :     0.033568

 10 H s       :     0.918640  s :     0.918640
      pz      :     0.014598  p :     0.068219
      px      :     0.018749
      py      :     0.034872

 11 H s       :     0.914495  s :     0.914495
      pz      :     0.027822  p :     0.078585
      px      :     0.016711
      py      :     0.034053

 12 H s       :     0.911777  s :     0.911777
      pz      :     0.018031  p :     0.063427
      px      :     0.015803
      py      :     0.029592

 13 H s       :     0.912869  s :     0.912869
      pz      :     0.017934  p :     0.063612
      px      :     0.015823
      py      :     0.029855

 14 H s       :     0.910515  s :     0.910515
      pz      :     0.035935  p :     0.063949
      px      :     0.015934
      py      :     0.012080

 15 H s       :     0.892537  s :     0.892537
      pz      :     0.105662  p :     0.284723
      px      :     0.047081
      py      :     0.131980

 16 H s       :     0.904007  s :     0.904007
      pz      :     0.019031  p :     0.157927
      px      :     0.037206
      py      :     0.101690

 17 O s       :     3.160818  s :     3.160818
      pz      :     1.246311  p :     4.288158
      px      :     1.667507
      py      :     1.374341
      dz2     :     0.022335  d :     0.111284
      dxz     :     0.020959
      dyz     :     0.040845
      dx2y2   :     0.004344
      dxy     :     0.022802

 18 H s       :     0.708773  s :     0.708773
      pz      :     0.042524  p :     0.197074
      px      :     0.081637
      py      :     0.072913

 19 H s       :     0.906209  s :     0.906209
      pz      :     0.054403  p :     0.242689
      px      :     0.059886
      py      :     0.128400



                      *****************************
                      * MAYER POPULATION ANALYSIS *
                      *****************************

  NA   - Mulliken gross atomic population
  ZA   - Total nuclear charge
  QA   - Mulliken gross atomic charge
  VA   - Mayer's total valence
  BVA  - Mayer's bonded valence
  FA   - Mayer's free valence

  ATOM       NA         ZA         QA         VA         BVA        FA
  0 N      6.5528     7.0000     0.4472     2.8871     2.8871     0.0000
  1 C      6.0394     6.0000    -0.0394     3.9459     3.9459     0.0000
  2 C      6.1363     6.0000    -0.1363     3.8661     3.8661     0.0000
  3 C      6.0604     6.0000    -0.0604     3.8432     3.8432    -0.0000
  4 C      5.9991     6.0000     0.0009     3.9154     3.9154    -0.0000
  5 C      5.9274     6.0000     0.0726     3.8576     3.8576     0.0000
  6 C      6.1405     6.0000    -0.1405     3.7162     3.7162     0.0000
  7 C      5.9160     6.0000     0.0840     3.9087     3.9087     0.0000
  8 H      1.0514     1.0000    -0.0514     0.9837     0.9837     0.0000
  9 H      1.0477     1.0000    -0.0477     0.9831     0.9831     0.0000
 10 H      1.0599     1.0000    -0.0599     1.0204     1.0204     0.0000
 11 H      1.0546     1.0000    -0.0546     0.9992     0.9992     0.0000
 12 H      0.9973     1.0000     0.0027     0.9922     0.9922    -0.0000
 13 H      0.9982     1.0000     0.0018     0.9900     0.9900     0.0000
 14 H      0.9867     1.0000     0.0133     0.9825     0.9825     0.0000
 15 H      1.2479     1.0000    -0.2479     1.3405     1.3405     0.0000
 16 H      1.0893     1.0000    -0.0893     1.2539     1.2539    -0.0000
 17 O      7.7101     8.0000     0.2899     2.3951     2.3951     0.0000
 18 H      0.7618     1.0000     0.2382     0.9700     0.9700     0.0000
 19 H      1.2232     1.0000    -0.2232     1.3791     1.3791    -0.0000

  Mayer bond orders larger than 0.100000
B(  0-N ,  2-C ) :   1.0099 B(  0-N , 15-H ) :   0.4112 B(  0-N , 16-H ) :   0.6903 
B(  0-N , 17-O ) :   0.8650 B(  1-C ,  3-C ) :   1.2181 B(  1-C ,  4-C ) :   1.4989 
B(  1-C ,  7-C ) :   1.0698 B(  2-C ,  5-C ) :   1.3362 B(  2-C ,  6-C ) :   1.1263 
B(  2-C , 15-H ) :   0.1202 B(  2-C , 19-H ) :   0.2192 B(  3-C ,  5-C ) :   1.4521 
B(  3-C ,  8-H ) :   0.9753 B(  4-C ,  6-C ) :   1.2662 B(  4-C ,  9-H ) :   0.9745 
B(  5-C , 10-H ) :   0.9779 B(  6-C , 11-H ) :   0.9646 B(  6-C , 18-H ) :   0.1321 
B(  7-C , 12-H ) :   0.9588 B(  7-C , 13-H ) :   0.9560 B(  7-C , 14-H ) :   0.9506 
B( 15-H , 16-H ) :   0.1605 B( 15-H , 17-O ) :   0.1287 B( 15-H , 19-H ) :   0.3303 
B( 16-H , 19-H ) :   0.1558 B( 17-O , 18-H ) :   0.8280 B( 17-O , 19-H ) :   0.5887 


-------
TIMINGS
-------

Total SCF time: 0 days 0 hours 0 min 6 sec 

Total time                  ....       6.350 sec
Sum of individual times     ....       6.309 sec  ( 99.4%)

SCF preparation             ....       0.947 sec  ( 14.9%)
Fock matrix formation       ....       4.978 sec  ( 78.4%)
  Startup                   ....       0.020 sec  (  0.4% of F)
  Split-RI-J                ....       0.481 sec  (  9.7% of F)
  Chain of spheres X        ....       3.045 sec  ( 61.2% of F)
  XC integration            ....       1.318 sec  ( 26.5% of F)
    Basis function eval.    ....       0.277 sec  ( 21.0% of XC)
    Density eval.           ....       0.127 sec  (  9.6% of XC)
    XC-Functional eval.     ....       0.063 sec  (  4.8% of XC)
    XC-Potential eval.      ....       0.182 sec  ( 13.8% of XC)
Diagonalization             ....       0.000 sec  (  0.0%)
Density matrix formation    ....       0.044 sec  (  0.7%)
Total Energy calculation    ....       0.038 sec  (  0.6%)
Population analysis         ....       0.017 sec  (  0.3%)
Orbital Transformation      ....       0.029 sec  (  0.5%)
Orbital Orthonormalization  ....       0.000 sec  (  0.0%)
DIIS solution               ....       0.156 sec  (  2.5%)
SOSCF solution              ....       0.098 sec  (  1.5%)
Finished LeanSCF after   6.4 sec

Maximum memory used throughout the entire LEANSCF-calculation: 19.7 MB


-------------------------------------------------------------------------------
                          DFT DISPERSION CORRECTION                            
                                                                               
                              DFTD3 V3.1  Rev 1                                
                          USING Becke-Johnson damping                          
-------------------------------------------------------------------------------
The B3LYP functional is recognized
Active option DFTDOPT                   ...         4   

molecular C6(AA) [au] = 3600.146215 


            DFT-D V3
 parameters
 s6 scaling factor         :     1.0000 
 a1 scaling factor         :     0.3981 
 s8 scaling factor         :     1.9889 
 a2 scaling factor         :     4.4211 
 ad hoc parameters k1-k3   :    16.0000     1.3333    -4.0000 

 Edisp/kcal,au: -21.348743560615  -0.034021384801 
 E6   /kcal   : -10.222724762 
 E8   /kcal   : -11.126018798 
 % E8         :  52.115567208 

-------------------------   ----------------
Dispersion correction           -0.034021385
-------------------------   ----------------


-------------------------   --------------------
FINAL SINGLE POINT ENERGY      -402.162741187166
-------------------------   --------------------



           ************************************************************
           *        Program running with 28 parallel MPI-processes    *
           *              working on a common directory               *
           ************************************************************
------------------------------------------------------------------------------
                         ORCA SCF GRADIENT CALCULATION
------------------------------------------------------------------------------

Nuc. rep. gradient        (SHARK) ... done (  0.0 sec)
HCore & Overlap gradient  (SHARK) ... done (  0.0 sec)
Split-RIJ-J gradient      (SHARK) ... done (  0.2 sec)
COSX-gradient                     ... done (  1.2 sec)
XC gradient                       ... done (  0.3 sec)
Dispersion correction             ... done (  0.1 sec)

-------------------
DISPERSION GRADIENT
-------------------

   1   N   :   -0.000600590   -0.000008833    0.000011950
   2   C   :    0.000543941   -0.000015657    0.000044190
   3   C   :   -0.000402995   -0.000010972    0.000023735
   4   C   :    0.000241824   -0.000619804    0.000078281
   5   C   :    0.000316684    0.000584435    0.000107592
   6   C   :   -0.000013651   -0.000677936    0.000120148
   7   C   :   -0.000065198    0.000573918    0.000085259
   8   C   :    0.000597541   -0.000001274   -0.000000532
   9   H   :    0.000080897   -0.000362556    0.000012221
  10   H   :    0.000099672    0.000365908    0.000018871
  11   H   :   -0.000055696   -0.000426877    0.000049184
  12   H   :   -0.000060715    0.000396110    0.000044586
  13   H   :    0.000284446    0.000075440    0.000056223
  14   H   :    0.000283661   -0.000076241    0.000054925
  15   H   :    0.000312933    0.000000095   -0.000133420
  16   H   :   -0.000289809    0.000080319    0.000014389
  17   H   :   -0.000303695   -0.000112195    0.000028404
  18   O   :   -0.000458830    0.000104083   -0.000195719
  19   H   :   -0.000232481    0.000176244   -0.000198492
  20   H   :   -0.000277939   -0.000044208   -0.000221793

Difference to translation invariance:
           :    0.0000000000   -0.0000000000    0.0000000000

Difference to rotation invariance:
           :   -0.0000000000    0.0000000000   -0.0000000000

Norm of the Dispersion gradient    ...    0.0021290203
RMS gradient                       ...    0.0002748553
MAX gradient                       ...    0.0006779356

------------------
CARTESIAN GRADIENT
------------------

   1   N   :   -0.080333696    0.128093605   -0.352351784
   2   C   :   -0.003590900   -0.034808432   -0.000234187
   3   C   :   -0.128971414    0.094560708   -0.101309166
   4   C   :    0.019295939    0.023238343   -0.002701468
   5   C   :   -0.026275751    0.014703401   -0.005042314
   6   C   :   -0.018686491    0.007632362   -0.020796015
   7   C   :    0.019149687   -0.028514580    0.011673264
   8   C   :    0.002118975   -0.000760255    0.001420185
   9   H   :    0.001306690    0.000097453    0.001849660
  10   H   :    0.000676703    0.000103513   -0.000311291
  11   H   :   -0.000742647   -0.001660028    0.001274517
  12   H   :    0.001894343   -0.003383138   -0.001019723
  13   H   :    0.000077520   -0.000068737    0.000221398
  14   H   :   -0.000061946    0.000317192   -0.000399514
  15   H   :   -0.001134519    0.000982951    0.000674757
  16   H   :    0.100664714   -0.130922792   -0.141794864
  17   H   :    0.024186751    0.063702842    0.016540300
  18   O   :    0.188581580   -0.197373827    0.493088312
  19   H   :   -0.050168221   -0.033410218   -0.003559631
  20   H   :   -0.047987315    0.097469640    0.102777566

Difference to translation invariance:
           :   -0.0000000000    0.0000000000    0.0000000000

Difference to rotation invariance:
           :    0.0003590037   -0.0001692765    0.0000298924

Norm of the Cartesian gradient     ...    0.7642548106
RMS gradient                       ...    0.0986648718
MAX gradient                       ...    0.4930883121

-------
TIMINGS
-------

Total SCF gradient time     ....        1.652 sec

Densities                   ....       0.001 sec  (  0.0%)
One electron gradient       ....       0.025 sec  (  1.5%)
RI-J Coulomb gradient       ....       0.150 sec  (  9.1%)
COSX gradient               ....       1.165 sec  ( 70.5%)
XC gradient                 ....       0.259 sec  ( 15.7%)

Maximum memory used throughout the entire SCFGRAD-calculation: 30.4 MB
------------------------------------------------------------------------------
                         ORCA GEOMETRY RELAXATION STEP
------------------------------------------------------------------------------

Reading the OPT-File                    .... done
Getting information on internals        .... done
Copying old internal coords+grads       .... done
Making the new internal coordinates     .... (2022 redundants) done
Validating the new internal coordinates .... (2022 redundants) done
Calculating the B-matrix                .... done
Calculating the G,G- and P matrices     .... done
Transforming gradient to internals      .... done
Projecting the internal gradient        .... done
Number of atoms                         ....  20
Number of internal coordinates          .... 122
Current Energy                          ....  -402.162741187 Eh
Current gradient norm                   ....     0.764254811 Eh/bohr
Maximum allowed component of the step   ....  0.300
Current trust radius                    ....  0.300
Evaluating the initial hessian          ....  (Almloef) done
Projecting the Hessian                  .... done
Forming the augmented Hessian           .... done
Diagonalizing the augmented Hessian     .... done
Last element of RFO vector              ....  0.854307408
Lowest eigenvalues of augmented Hessian:
 -0.260717529  0.012115727  0.020118379  0.024720539  0.025268353
Length of the computed step             ....  0.608408719
Warning: the length of the step is outside the trust region - taking restricted step instead
The input lambda is                     ....     0.011113
   iter:   5  x=   -0.366332  g=    2.121963 f(x)=     0.439360
   iter:  10  x=   -0.969676  g=    0.124311 f(x)=     0.000026
The output lambda is                    ....    -0.969676 (12 iterations)
The final length of the internal step   ....  0.300000000
Converting the step to Cartesian space:
 Initial RMS(Int)=    0.0271607238
Transforming coordinates:
 Iter   0:  RMS(Cart)=    0.0401959938 RMS(Int)=    0.0271575542
done
Storing new coordinates                 .... done

                                .--------------------.
          ----------------------|Geometry convergence|-------------------------
          Item                value                   Tolerance       Converged
          ---------------------------------------------------------------------
          RMS gradient        0.0404660107            0.0001000000      NO
          MAX gradient        0.2400711514            0.0003000000      NO
          RMS step            0.0271607238            0.0020000000      NO
          MAX step            0.1467707186            0.0040000000      NO
          ........................................................
          Max(Bonds)      0.0777      Max(Angles)    2.25
          Max(Dihed)        1.46      Max(Improp)    0.00
          ---------------------------------------------------------------------

The optimization has not yet converged - more geometry cycles are needed


    ---------------------------------------------------------------------------
                         Redundant Internal Coordinates
                            (Angstroem and degrees)

        Definition                    Value    dE/dq     Step     New-Value
    ----------------------------------------------------------------------------
     1. B(C   2,N   0)                1.3760 -0.041534  0.0183    1.3943   
     2. B(C   3,C   1)                1.4026 -0.028329  0.0092    1.4118   
     3. B(C   4,C   1)                1.4027  0.011080 -0.0040    1.3986   
     4. B(C   5,C   2)                1.4094 -0.007597  0.0029    1.4123   
     5. B(C   5,C   3)                1.3934  0.009593 -0.0032    1.3902   
     6. B(C   6,C   4)                1.3934 -0.017287  0.0058    1.3992   
     7. B(C   6,C   2)                1.4095 -0.019309  0.0069    1.4164   
     8. B(C   7,C   1)                1.5086  0.000969 -0.0004    1.5082   
     9. B(H   8,C   3)                1.0944  0.000566 -0.0002    1.0942   
    10. B(H   9,C   4)                1.0944  0.000419 -0.0002    1.0942   
    11. B(H  10,C   5)                1.0940  0.001812 -0.0007    1.0933   
    12. B(H  11,C   6)                1.0940 -0.003878  0.0015    1.0956   
    13. B(H  12,C   7)                1.1015  0.000074 -0.0000    1.1015   
    14. B(H  13,C   7)                1.1015 -0.000461  0.0002    1.1017   
    15. B(H  14,C   7)                1.1052 -0.001024  0.0004    1.1056   
    16. B(H  15,N   0)                1.0083 -0.125664  0.0457    1.0540   
[...]
      py      :     1.335628
      dz2     :     0.001445  d :     0.010669
      dxz     :     0.001177
      dyz     :     0.001154
      dx2y2   :     0.004585
      dxy     :     0.002308

 18 H s       :     0.770877  s :     0.770877
      pz      :     0.020145  p :     0.070787
      px      :     0.031643
      py      :     0.018998

 19 H s       :     0.768442  s :     0.768442
      pz      :     0.021189  p :     0.070198
      px      :     0.016271
      py      :     0.032738



                     *******************************
                     * LOEWDIN POPULATION ANALYSIS *
                     *******************************

----------------------
LOEWDIN ATOMIC CHARGES
----------------------
   0 N :   -0.040617
   1 C :   -0.058625
   2 C :    0.013874
   3 C :   -0.019795
   4 C :   -0.023513
   5 C :   -0.069890
   6 C :   -0.078834
   7 C :   -0.046278
   8 H :    0.022544
   9 H :    0.022252
  10 H :    0.019223
  11 H :    0.020701
  12 H :    0.027486
  13 H :    0.027057
  14 H :    0.030557
  15 H :    0.050916
  16 H :    0.064451
  17 O :   -0.116930
  18 H :    0.074503
  19 H :    0.080919

-------------------------------
LOEWDIN REDUCED ORBITAL CHARGES
-------------------------------
  0 N s       :     3.068427  s :     3.068427
      pz      :     1.588211  p :     3.928183
      px      :     1.148464
      py      :     1.191508
      dz2     :     0.004123  d :     0.044007
      dxz     :     0.008293
      dyz     :     0.004545
      dx2y2   :     0.014659
      dxy     :     0.012386

  1 C s       :     2.852666  s :     2.852666
      pz      :     0.998782  p :     3.100411
      px      :     1.028411
      py      :     1.073219
      dz2     :     0.007787  d :     0.105548
      dxz     :     0.011432
      dyz     :     0.012937
      dx2y2   :     0.035864
      dxy     :     0.037528

  2 C s       :     2.839655  s :     2.839655
      pz      :     0.944596  p :     3.001683
      px      :     0.966421
      py      :     1.090666
      dz2     :     0.009933  d :     0.144789
      dxz     :     0.030590
      dyz     :     0.013664
      dx2y2   :     0.047577
      dxy     :     0.043025

  3 C s       :     2.861670  s :     2.861670
      pz      :     0.975283  p :     3.066132
      px      :     1.052366
      py      :     1.038483
      dz2     :     0.006764  d :     0.091992
      dxz     :     0.013601
      dyz     :     0.007564
      dx2y2   :     0.030015
      dxy     :     0.034048

  4 C s       :     2.861830  s :     2.861830
      pz      :     0.976675  p :     3.069498
      px      :     1.055298
      py      :     1.037525
      dz2     :     0.006044  d :     0.092185
      dxz     :     0.014913
      dyz     :     0.006678
      dx2y2   :     0.031759
      dxy     :     0.032792

  5 C s       :     2.860740  s :     2.860740
      pz      :     1.043948  p :     3.121907
      px      :     1.055415
      py      :     1.022545
      dz2     :     0.006291  d :     0.087243
      dxz     :     0.011964
      dyz     :     0.005684
      dx2y2   :     0.028942
      dxy     :     0.034361

  6 C s       :     2.862732  s :     2.862732
      pz      :     1.050229  p :     3.129278
      px      :     1.053269
      py      :     1.025781
      dz2     :     0.006536  d :     0.086824
      dxz     :     0.010935
      dyz     :     0.006449
      dx2y2   :     0.028090
      dxy     :     0.034813

  7 C s       :     2.835057  s :     2.835057
      pz      :     1.063150  p :     3.137991
      px      :     1.016255
      py      :     1.058585
      dz2     :     0.017902  d :     0.073230
      dxz     :     0.013309
      dyz     :     0.009186
      dx2y2   :     0.017855
      dxy     :     0.014978

  8 H s       :     0.911382  s :     0.911382
      pz      :     0.014253  p :     0.066074
      px      :     0.019338
      py      :     0.032483

  9 H s       :     0.911600  s :     0.911600
      pz      :     0.014844  p :     0.066147
      px      :     0.016253
      py      :     0.035050

 10 H s       :     0.913193  s :     0.913193
      pz      :     0.016936  p :     0.067585
      px      :     0.015831
      py      :     0.034818

 11 H s       :     0.910422  s :     0.910422
      pz      :     0.016772  p :     0.068877
      px      :     0.019292
      py      :     0.032813

 12 H s       :     0.908765  s :     0.908765
      pz      :     0.015470  p :     0.063749
      px      :     0.015783
      py      :     0.032496

 13 H s       :     0.909227  s :     0.909227
      pz      :     0.018700  p :     0.063716
      px      :     0.017923
      py      :     0.027092

 14 H s       :     0.905713  s :     0.905713
      pz      :     0.037517  p :     0.063730
      px      :     0.013955
      py      :     0.012258

 15 H s       :     0.817390  s :     0.817390
      pz      :     0.056958  p :     0.131694
      px      :     0.030315
      py      :     0.044420

 16 H s       :     0.815090  s :     0.815090
      pz      :     0.037756  p :     0.120459
      px      :     0.025439
      py      :     0.057264

 17 O s       :     3.434299  s :     3.434299
      pz      :     1.764002  p :     4.663116
      px      :     1.506050
      py      :     1.393064
      dz2     :     0.002774  d :     0.019515
      dxz     :     0.001087
      dyz     :     0.002683
      dx2y2   :     0.008903
      dxy     :     0.004068

 18 H s       :     0.747090  s :     0.747090
      pz      :     0.050920  p :     0.178407
      px      :     0.088079
      py      :     0.039408

 19 H s       :     0.744006  s :     0.744006
      pz      :     0.056948  p :     0.175075
      px      :     0.037994
      py      :     0.080134



                      *****************************
                      * MAYER POPULATION ANALYSIS *
                      *****************************

  NA   - Mulliken gross atomic population
  ZA   - Total nuclear charge
  QA   - Mulliken gross atomic charge
  VA   - Mayer's total valence
  BVA  - Mayer's bonded valence
  FA   - Mayer's free valence

  ATOM       NA         ZA         QA         VA         BVA        FA
  0 N      7.0804     7.0000    -0.0804     3.1483     3.1483    -0.0000
  1 C      6.0366     6.0000    -0.0366     3.9484     3.9484    -0.0000
  2 C      5.9610     6.0000     0.0390     4.0553     4.0553     0.0000
  3 C      6.0169     6.0000    -0.0169     3.8673     3.8673     0.0000
  4 C      6.0178     6.0000    -0.0178     3.8623     3.8623     0.0000
  5 C      6.0230     6.0000    -0.0230     3.7920     3.7920     0.0000
  6 C      6.0679     6.0000    -0.0679     3.8098     3.8098    -0.0000
  7 C      5.9187     6.0000     0.0813     3.9058     3.9058    -0.0000
  8 H      1.0373     1.0000    -0.0373     0.9837     0.9837    -0.0000
  9 H      1.0375     1.0000    -0.0375     0.9841     0.9841     0.0000
 10 H      1.0508     1.0000    -0.0508     0.9843     0.9843     0.0000
 11 H      1.0314     1.0000    -0.0314     0.9913     0.9913     0.0000
 12 H      0.9902     1.0000     0.0098     0.9917     0.9917    -0.0000
 13 H      0.9920     1.0000     0.0080     0.9928     0.9928     0.0000
 14 H      0.9780     1.0000     0.0220     0.9844     0.9844    -0.0000
 15 H      0.9047     1.0000     0.0953     1.0831     1.0831    -0.0000
 16 H      0.9056     1.0000     0.0944     1.0033     1.0033    -0.0000
 17 O      8.2702     8.0000    -0.2702     2.1268     2.1268    -0.0000
 18 H      0.8417     1.0000     0.1583     1.0375     1.0375    -0.0000
 19 H      0.8386     1.0000     0.1614     1.0120     1.0120    -0.0000

  Mayer bond orders larger than 0.100000
B(  0-N ,  2-C ) :   1.2089 B(  0-N , 15-H ) :   0.9226 B(  0-N , 16-H ) :   0.9514 
B(  1-C ,  3-C ) :   1.3807 B(  1-C ,  4-C ) :   1.3786 B(  1-C ,  7-C ) :   1.0648 
B(  2-C ,  5-C ) :   1.3332 B(  2-C ,  6-C ) :   1.3233 B(  3-C ,  5-C ) :   1.3794 
B(  3-C ,  8-H ) :   0.9802 B(  4-C ,  6-C ) :   1.3769 B(  4-C ,  9-H ) :   0.9818 
B(  5-C , 10-H ) :   0.9841 B(  6-C , 11-H ) :   0.9780 B(  7-C , 12-H ) :   0.9581 
B(  7-C , 13-H ) :   0.9583 B(  7-C , 14-H ) :   0.9530 B( 15-H , 17-O ) :   0.1184 
B( 17-O , 18-H ) :   0.9877 B( 17-O , 19-H ) :   0.9944 

-------
TIMINGS
-------

Total SCF time: 0 days 0 hours 0 min 2 sec 

Total time                  ....       2.816 sec
Sum of individual times     ....       2.779 sec  ( 98.7%)

SCF preparation             ....       1.008 sec  ( 35.8%)
Fock matrix formation       ....       1.492 sec  ( 53.0%)
  Startup                   ....       0.008 sec  (  0.5% of F)
  Split-RI-J                ....       0.139 sec  (  9.3% of F)
  Chain of spheres X        ....       1.076 sec  ( 72.1% of F)
  XC integration            ....       0.243 sec  ( 16.3% of F)
    Basis function eval.    ....       0.072 sec  ( 29.7% of XC)
    Density eval.           ....       0.029 sec  ( 12.0% of XC)
    XC-Functional eval.     ....       0.018 sec  (  7.3% of XC)
    XC-Potential eval.      ....       0.035 sec  ( 14.4% of XC)
Diagonalization             ....       0.000 sec  (  0.0%)
Density matrix formation    ....       0.012 sec  (  0.4%)
Total Energy calculation    ....       0.012 sec  (  0.4%)
Population analysis         ....       0.184 sec  (  6.5%)
Orbital Transformation      ....       0.011 sec  (  0.4%)
Orbital Orthonormalization  ....       0.000 sec  (  0.0%)
DIIS solution               ....       0.013 sec  (  0.5%)
SOSCF solution              ....       0.047 sec  (  1.7%)
Finished LeanSCF after   3.0 sec

Maximum memory used throughout the entire LEANSCF-calculation: 24.7 MB


-------------------------------------------------------------------------------
                          DFT DISPERSION CORRECTION                            
                                                                               
                              DFTD3 V3.1  Rev 1                                
                          USING Becke-Johnson damping                          
-------------------------------------------------------------------------------
The B3LYP functional is recognized
Active option DFTDOPT                   ...         4   

molecular C6(AA) [au] = 3694.601850 


            DFT-D V3
 parameters
 s6 scaling factor         :     1.0000 
 a1 scaling factor         :     0.3981 
 s8 scaling factor         :     1.9889 
 a2 scaling factor         :     4.4211 
 ad hoc parameters k1-k3   :    16.0000     1.3333    -4.0000 

 Edisp/kcal,au: -20.181641756279  -0.032161489886 
 E6   /kcal   :  -9.630236006 
 E8   /kcal   : -10.551405750 
 % E8         :  52.282197246 

-------------------------   ----------------
Dispersion correction           -0.032161490
-------------------------   ----------------


-------------------------   --------------------
FINAL SINGLE POINT ENERGY      -402.840587835588
-------------------------   --------------------

                                *** OPTIMIZATION RUN DONE ***



           ************************************************************
           *        Program running with 28 parallel MPI-processes    *
           *              working on a common directory               *
           ************************************************************

------------------------------------------------------------------------------
                              ORCA PROPERTY CALCULATIONS
------------------------------------------------------------------------------

GBWName                                 ... p_toluidine_water_2.gbw
Number of atoms                         ...     20
Number of basis functions               ...    181
Max core memory                         ...   1024 MB

Electric properties:
Dipole moment                           ... YES
Quadrupole moment                       ...  NO
Static polarizability (Dipole/Dipole)   ...  NO
Static polarizability (Dipole/Quad.)    ...  NO
Static polarizability (Quad./Quad.)     ...  NO
Static polarizability (Velocity)        ...  NO

Atomic electric properties:
Dipole moment                           ...  NO
Quadrupole moment                       ...  NO
Static polarizability                   ...  NO

Choice of electric origin               ... Center of mass
Position of electric origin             ...    12.117723    12.013911     1.287265

General magnetic properties:
Magnetizability                         ...  NO

EPR properties:
g-Tensor (aka g-matrix)                 ...  NO
Zero-Field splitting spin-orbit         ...  NO
Zero-field splitting spin-spin          ...  NO
Hyperfine couplings                     ...  NO (   0 nuclei)
Quadrupole couplings                    ...  NO (   0 nuclei)
Contact density                         ...  NO (   0 nuclei)

NMR properties:
Chemical shifts                         ...  NO (   0 nuclei)
Spin-rotation constants                 ...  NO (   0 nuclei)
Spin-spin couplings                     ...  NO (   0 nuclei,    0 pairs)

Choice of magnetic origin               ... GIAO
Position of magnetic origin             ...     0.000000     0.000000     0.000000

Properties with geometric perturbations:
SCF Hessian                             ...  NO
IR spectrum                             ...  NO
VCD spectrum                            ...  NO
X-ray spectroscopy properties:
SCF XES/XAS/RIXS spectra                ...  NO


-------------
DIPOLE MOMENT
-------------

Method             : SCF
Type of density    : Electron Density
Multiplicity       :   1
Irrep              :   0
Energy             :  -402.8084263457016050 Eh
Relativity type    : 
Basis              : AO
                                X                 Y                 Z
Electronic contribution:     -2.772477328      -0.543130866       1.517786094
Nuclear contribution   :      2.930872136       0.075971757      -2.036103551
                        -----------------------------------------
Total Dipole Moment    :      0.158394807      -0.467159108      -0.518317457
                        -----------------------------------------
Magnitude (a.u.)       :      0.715527451
Magnitude (Debye)      :      1.818726245



--------------------
Rotational spectrum 
--------------------
 
Rotational constants in cm-1:             0.092433             0.030477             0.025642 
Rotational constants in MHz :          2771.071162           913.691540           768.716453 

Dipole components along the rotational axes: 
x,y,z [a.u.] :     0.129879    -0.058632     0.701194 
x,y,z [Debye]:     0.330126    -0.149032     1.782294 

 

Dipole moment calculation done in   0.1 sec 

Maximum memory used throughout the entire PROP-calculation: 14.5 MB

--------------------------------
SUGGESTED CITATIONS FOR THIS RUN
--------------------------------

Below you find a list of papers that are relevant to this ORCA run
We neither can nor want to force you to cite these papers, but we appreciate if you do
You receive ORCA, which is the product of decades of hard work by many enthusiastic individuals, for free
The only thing we kindly ask in return is that you cite our papers,
We deeply appreciate it, if you show your appreciation for ORCA by not just citing the generic ORCA reference.

Please note that relegating all ORCA citations to the supporting information does *not* help us.
SI sections are not indexed - citations you put there will not count into any citation statistics
But we need these citations in order to attract the funding resources that allow us to do what we are doing

Therefore, if you are a happy ORCA user, please consider citing a few of the papers listed below in the main body of your paper

In addition to the list printed below, the program has created the file p_toluidine_water_2.bibtex that contains the list in bibtex format
You can import this file easily into all common literature databanks and citation aid programs


List of essential papers. We consider these as the minimum necessary citations

  1. Neese,F.
     Software update: the ORCA program system, version 5.0
     WIRES Comput. Molec. Sci., 2022 12(1)e1606
     doi.org/10.1002/wcms.1606

List of papers to cite with high priority. The work reported in these papers was absolutely
necessary for this run to complete.
Our perspective: the developers of density functionals and basis sets usually get cited in chemistry papers
Good! But without the algorithms to do something with them, the functionals or basis sets would not do anything.
Hence, in our opinion, the algorithm design and method developments papers are equally worthy of getting cited

  1. Neese,F.
     An improvement of the resolution of the identity approximation for the formation of the Coulomb matrix
     J. Comp. Chem., 2003 24(14)1740-1747
     doi.org/10.1002/jcc.10318
  2. Neese,F.; Wennmohs,F.; Hansen,A.; Becker,U.
     Efficient, approximate and parallel Hartree-Fock and hybrid DFT calculations. A 'chain-of-spheres' algorithm for the Hartree-Fock exchange
     Chem. Phys., 2009 356(1-3)98-109
     doi.org/10.1016/j.chemphys.2008.10.036
  3. Helmich-Paris,B.; de Souza,B.; Neese,F.; Izsák,R.
     An improved chain of spheres for exchange algorithm
     J. Chem. Phys., 2021 155 104109
     doi.org/doi: 10.1063/5.0058766.
  4. Neese,F.
     The SHARK Integral Generation and Digestion System
     J. Comp. Chem., 2022  1-16
     doi.org/10.1002/jcc.26942
  5. Grimme,S.; Antony,J.; Ehrlich,S.; Krieg,H.
     A consistent and accurate ab initio parametrization of density functional dispersion correction (DFT-D) for the 94 elements H-Pu
     J. Chem. Phys., 2010 132 154104
     doi.org/10.1063/1.3382344
  6. Grimme,S.; Ehrlich,S.; Goerigk,L.
     Effect of the damping function in dispersion corrected density functional theory
     J. Comput. Chem., 2011 32(7)1456-1465
     doi.org/10.1002/jcc.21759

List of suggested additional citations. These are papers that are important in the 'surrounding' of 
of this run, or papers that preceded the highly important papers. If you like your results we are grateful for a citation.

  1. Izsak,R.; Neese,F.
     An overlap fitted chain of spheres exchange method
     J. Chem. Phys., 2011 135 144105
     doi.org/10.1063/1.3646921
  2. Izsak,R.; Hansen,A.; Neese,F.
     The resolution of identity and chain of spheres approximations for the LPNO-CCSD singles Fock term
     Molec. Phys., 2012 110 2413-2417
     doi.org/10.1080/00268976.2012.687466
  3. Neese,F.
     The ORCA program system
     WIRES Comput. Molec. Sci., 2012 2(1)73-78
     doi.org/10.1002/wcms.81
  4. Izsak,R.; Neese,F.; Klopper,W.
     Robust fitting techniques in the chain of spheres approximation to the Fock exchange: The role of the complementary space
     J. Chem. Phys., 2013 139 
     doi.org/10.1063/1.4819264
  5. Neese,F.
     Software update: the ORCA program system, version 4.0
     WIRES Comput. Molec. Sci., 2018 8(1)1-6
     doi.org/10.1002/wcms.1327
  6. Neese,F.; Wennmohs,F.; Becker,U.; Riplinger,C.
     The ORCA quantum chemistry program package
     J. Chem. Phys., 2020 152 Art. No. L224108
     doi.org/10.1063/5.0004608

List of optional additional citations

  1. Neese,F.
     Approximate second-order SCF convergence for spin unrestricted wavefunctions
     Chem. Phys. Lett., 2000 325(1-3)93-98
     doi.org/10.1016/s0009-2614(00)00662-x

Timings for individual modules:

Sum of individual times          ...      478.029 sec (=   7.967 min)
Startup calculation              ...       93.606 sec (=   1.560 min)  19.6 %
SCF iterations                   ...      248.325 sec (=   4.139 min)  51.9 %
Property calculations            ...        1.109 sec (=   0.018 min)   0.2 %
SCF Gradient evaluation          ...      134.506 sec (=   2.242 min)  28.1 %
Geometry relaxation              ...        0.483 sec (=   0.008 min)   0.1 %
                             ****ORCA TERMINATED NORMALLY****
TOTAL RUN TIME: 0 days 0 hours 8 minutes 56 seconds 39 msec
