LAMMPS (2 Aug 2023 - Update 4)
OMP_NUM_THREADS environment is not set. Defaulting to 1 thread. (src/comm.cpp:98)
  using 1 OpenMP thread(s) per MPI task
variable i loop 20
label loop_start
clear  # 초기화
OMP_NUM_THREADS environment is not set. Defaulting to 1 thread. (src/comm.cpp:98)
  using 1 OpenMP thread(s) per MPI task

# Create and move to a new directory for this run
shell mkdir run_${i}
shell mkdir run_1
shell cd run_${i}
shell cd run_1

# LAMMPS Input Script for Finding O2- Adsorption Site for DFT
units real
atom_style charge  # ReaxFF requires charge
boundary p p p  # Periodic boundary conditions

# Copy input files to the new directory
shell cp ../chelpg_updated_c60malonicester.data .
shell cp ../chelpg_updated_O2.data .
shell cp ../ffield.reax.rdx .

# Read input data files
read_data chelpg_updated_c60malonicester.data
Reading data file ...
  orthogonal box = (-20 -20 -20) to (20 20 20)
  1 by 1 by 1 MPI processor grid
  reading atoms ...
  81 atoms
  read_data CPU = 0.004 seconds
read_data chelpg_updated_O2.data add append
Reading data file ...
  orthogonal box = (-20 -20 -20) to (20 20 20)
  1 by 1 by 1 MPI processor grid
WARNING: Atom style in data file full differs from currently defined atom style charge (src/read_data.cpp:621)
  reading atoms ...
  2 atoms
  read_data CPU = 0.002 seconds

# Define groups
group c60 type 1 2 3  # c60 (C, H, O)
81 atoms in group c60
group O2molecule type 4  # O2- (assumed type 4)
2 atoms in group O2molecule

# Fix c60 to prevent unwanted movement
fix freeze c60 setforce 0.0 0.0 0.0

# Define ReaxFF pair style and parameters
pair_style reax/c NULL
pair_coeff * * ffield.reax.rdx C H O O  # O2- included
Reading potential file ffield.reax.rdx with DATE: 2010-02-19

# Charge equilibration (QEq) required for ReaxFF
fix 1 all qeq/reaxff 1 0.0 10.0 1.0e-6 reaxff

# Define MSD computation
compute msdO O2molecule msd

# Generate different random positions for O2-
variable seed1 equal 12345+v_i*1000
variable seed2 equal 67890+v_i*1000
variable seed3 equal 54321+v_i*1000
variable dx equal random(-8,8,v_seed1)
variable dy equal random(-8,8,v_seed2)
variable dz equal random(-8,8,v_seed3)
displace_atoms O2molecule move ${dx} ${dy} ${dz} units box
displace_atoms O2molecule move 1.48685932159424 ${dy} ${dz} units box
displace_atoms O2molecule move 1.48685932159424 -6.76713562011719 ${dz} units box
displace_atoms O2molecule move 1.48685932159424 -6.76713562011719 2.97348117828369 units box
Displacing atoms ...

# Initial energy minimization to relax high-force configurations
minimize 1.0e-6 1.0e-8 5000 10000

CITE-CITE-CITE-CITE-CITE-CITE-CITE-CITE-CITE-CITE-CITE-CITE-CITE

Your simulation uses code contributions which should be cited:

- pair reaxff command: doi:10.1016/j.parco.2011.08.005

@Article{Aktulga12,
 author = {H. M. Aktulga and J. C. Fogarty and S. A. Pandit and A. Y. Grama},
 title = {Parallel Reactive Molecular Dynamics: {N}umerical Methods and Algorithmic Techniques},
 journal = {Parallel Computing},
 year =    2012,
 volume =  38,
 number =  {4--5},
 pages =   {245--259}
}

- fix qeq/reaxff command: doi:10.1016/j.parco.2011.08.005

@Article{Aktulga12,
 author = {H. M. Aktulga and J. C. Fogarty and S. A. Pandit and A. Y. Grama},
 title = {Parallel Reactive Molecular Dynamics: {N}umerical Methods and Algorithmic Techniques},
 journal = {Parallel Computing},
 year =    2012,
 volume =  38,
 pages =   {245--259}
}

CITE-CITE-CITE-CITE-CITE-CITE-CITE-CITE-CITE-CITE-CITE-CITE-CITE

WARNING: Fix qeq/reaxff group is not charge neutral, net charge = -0.999999 (src/REAXFF/fix_qeq_reaxff.cpp:410)
Neighbor list info ...
  update: every = 1 steps, delay = 0 steps, check = yes
  max neighbors/atom: 2000, page size: 100000
  master list distance cutoff = 12
  ghost atom cutoff = 12
  binsize = 6, bins = 7 7 7
  2 neighbor lists, perpetual/occasional/extra = 2 0 0
  (1) pair reax/c, perpetual
      attributes: half, newton off, ghost
      pair build: half/bin/newtoff/ghost
      stencil: full/ghost/bin/3d
      bin: standard
  (2) fix qeq/reaxff, perpetual, copy from (1)
      attributes: half, newton off
      pair build: copy
      stencil: none
      bin: none
Per MPI rank memory allocation (min/avg/max) = 8.771 | 8.771 | 8.771 Mbytes
   Step          Temp          E_pair         E_mol          TotEng         Press     
         0   0             -13575.93       0             -13575.93       9733.7072    
         4   0             -13597.441      0             -13597.441      9878.7778    
Loop time of 0.0099099 on 1 procs for 4 steps with 83 atoms

100.0% CPU use with 1 MPI tasks x 1 OpenMP threads

Minimization stats:
  Stopping criterion = energy tolerance
  Energy initial, next-to-last, final = 
     -13575.9298246035  -13597.4326883551  -13597.4407417249
  Force two-norm initial, final = 425.2162 4.200122
  Force max component initial, final = 300.85286 3.0852863
  Final line search alpha, max atom move = 0.0095097261 0.029340228
  Iterations, force evaluations = 4 7

MPI task timing breakdown:
Section |  min time  |  avg time  |  max time  |%varavg| %total
---------------------------------------------------------------
Pair    | 0.0071168  | 0.0071168  | 0.0071168  |   0.0 | 71.82
Neigh   | 0          | 0          | 0          |   0.0 |  0.00
Comm    | 4.6e-06    | 4.6e-06    | 4.6e-06    |   0.0 |  0.05
Output  | 0          | 0          | 0          |   0.0 |  0.00
Modify  | 0.0027043  | 0.0027043  | 0.0027043  |   0.0 | 27.29
Other   |            | 8.42e-05   |            |       |  0.85

Nlocal:             83 ave          83 max          83 min
Histogram: 1 0 0 0 0 0 0 0 0 0
Nghost:              1 ave           1 max           1 min
Histogram: 1 0 0 0 0 0 0 0 0 0
Neighs:           3332 ave        3332 max        3332 min
Histogram: 1 0 0 0 0 0 0 0 0 0

Total # of neighbors = 3332
Ave neighs/atom = 40.144578
Neighbor list builds = 0
Dangerous builds = 0
write_data minimized_structure_${i}.data  # Save minimized structure
write_data minimized_structure_1.data  
System init for write_data ...

# Run NVT MD simulation for O2- to find adsorption site
fix nvt O2molecule nvt temp 300.0 300.0 100.0

fix msdout O2molecule ave/time 100 1 100 c_msdO[1] file msd_O2_${i}.dat
fix msdout O2molecule ave/time 100 1 100 c_msdO[1] file msd_O2_1.dat
fix msdoutX O2molecule ave/time 100 1 100 c_msdO[2] file msd_O2_X_${i}.dat
fix msdoutX O2molecule ave/time 100 1 100 c_msdO[2] file msd_O2_X_1.dat
fix msdoutY O2molecule ave/time 100 1 100 c_msdO[3] file msd_O2_Y_${i}.dat
fix msdoutY O2molecule ave/time 100 1 100 c_msdO[3] file msd_O2_Y_1.dat
fix msdoutZ O2molecule ave/time 100 1 100 c_msdO[4] file msd_O2_Z_${i}.dat
fix msdoutZ O2molecule ave/time 100 1 100 c_msdO[4] file msd_O2_Z_1.dat

# Save total energy to a file
variable etotal equal pe+ke
fix totenergy all print 100 "${etotal}" file total_energy_${i}.dat screen no
fix totenergy all print 100 "${etotal}" file total_energy_1.dat screen no

# Bond Order Analysis (Check if O2- is binding)
fix bonds all reax/c/bonds 1000 bonds_${i}.reax
fix bonds all reax/c/bonds 1000 bonds_1.reax

# Output settings: Save trajectory and bond information
thermo 100
thermo_style custom step temp pe ke etotal press
dump ${i} all atom 100 dump_${i}.lammpstrj  # Save trajectory
dump 1 all atom 100 dump_${i}.lammpstrj  
dump 1 all atom 100 dump_1.lammpstrj  

timestep 0.25
run 200000  # 1000 ps
Per MPI rank memory allocation (min/avg/max) = 12.58 | 12.58 | 12.58 Mbytes
   Step          Temp          PotEng         KinEng         TotEng         Press     
         4   0             -13597.441      0             -13597.441      9878.7777    
       100   0.033626351   -13597.449      0.0082191687  -13597.44       9877.9484    
       200   0.12002951    -13597.466      0.029338384   -13597.437      9876.3259    
       300   0.35132982    -13597.504      0.085874292   -13597.418      9877.1732    
       400   0.849835      -13597.558      0.20772213    -13597.35       9879.2981    
       500   1.9589624     -13597.645      0.47882216    -13597.166      9878.7251    
       600   3.7540841     -13597.744      0.91759735    -13596.826      9876.7826    
       700   5.6069967     -13597.825      1.3704982     -13596.454      9879.0107    
       800   6.1907294     -13597.751      1.5131779     -13596.238      9883.608     
       900   4.996644      -13597.418      1.2213118     -13596.197      9884.3808    
      1000   2.6636329     -13596.862      0.65106227    -13596.211      9883.2602    
      1100   1.0485383     -13596.489      0.25629046    -13596.233      9883.6361    
      1200   1.8835003     -13596.664      0.46037725    -13596.203      9885.8794    
      1300   5.1082637     -13597.332      1.2485946     -13596.084      9883.3086    
      1400   7.7218656     -13597.792      1.887428      -13595.904      9879.0372    
      1500   7.8630358     -13597.892      1.9219337     -13595.97       9878.8453    
      1600   6.0698584     -13597.77       1.4836338     -13596.286      9881.0215    
      1700   3.9302906     -13597.621      0.96066687    -13596.66       9878.9395    
      1800   2.2226584     -13597.486      0.54327644    -13596.942      9875.8247    
      1900   1.1894658     -13597.394      0.29073687    -13597.104      9876.8608    
      2000   0.59577341    -13597.326      0.14562276    -13597.18       9879.0557    
      2100   0.30744158    -13597.287      0.075146847   -13597.212      9878.0741    
      2200   0.15526119    -13597.262      0.037949938   -13597.224      9876.0493    
      2300   0.1172277     -13597.257      0.028653546   -13597.229      9876.8384    
      2400   0.13269424    -13597.263      0.032433979   -13597.23       9878.7332    
      2500   0.24414695    -13597.286      0.059675965   -13597.226      9878.0501    
      2600   0.50476954    -13597.322      0.12337901    -13597.199      9876.0353    
      2700   1.287615      -13597.39       0.31472713    -13597.076      9876.8055    
      2800   3.3567413     -13597.497      0.82047627    -13596.676      9879.9029    
      2900   7.2074697     -13597.667      1.761696      -13595.905      9879.8187    
      3000   10.970363     -13597.825      2.6814467     -13595.143      9877.4274    
      3100   11.394477     -13597.784      2.7851114     -13594.999      9880.6315    
      3200   7.4186555     -13597.289      1.8133154     -13595.476      9886.0661    
      3300   3.6002044     -13596.743      0.87998509    -13595.863      9886.1905    
      3400   3.4641598     -13596.95       0.8467322     -13596.103      9882.8634    
      3500   4.3093769     -13597.391      1.0533256     -13596.337      9883.4621    
      3600   4.0838457     -13597.638      0.99819981    -13596.64       9884.8919    
      3700   3.5671344     -13597.788      0.87190191    -13596.916      9882.6956    
      3800   3.0770191     -13597.897      0.75210477    -13597.145      9879.0903    
      3900   2.5792725     -13597.952      0.63044235    -13597.321      9878.8838    
      4000   2.0518351     -13597.944      0.50152272    -13597.442      9880.2205    
      4100   1.6033107     -13597.906      0.39189151    -13597.514      9878.9962    
      4200   1.2372106     -13597.85       0.30240695    -13597.548      9876.6331    
      4300   0.99522851    -13597.798      0.24326015    -13597.555      9876.9945    
      4400   0.85698906    -13597.747      0.20947077    -13597.538      9878.8537    
      4500   0.89848224    -13597.707      0.2196128     -13597.488      9878.2506    
      4600   1.2858094     -13597.669      0.3142858     -13597.355      9875.9186    
      4700   2.6767336     -13597.639      0.65426442    -13596.985      9876.5474    
      4800   5.6511679     -13597.603      1.3812948     -13596.221      9880.2901    
      4900   8.8466965     -13597.578      2.1623664     -13595.415      9879.962     
      5000   10.132018     -13597.545      2.4765328     -13595.068      9875.9555    
      5100   9.3278925     -13597.541      2.2799834     -13595.261      9876.9809    
      5200   7.2918267     -13597.537      1.7823151     -13595.754      9880.7934    
      5300   5.2467261     -13597.546      1.2824385     -13596.263      9879.5913    
      5400   3.6922768     -13597.549      0.90249002    -13596.647      9876.0798    
      5500   2.732563      -13597.565      0.66791059    -13596.897      9876.9429    
      5600   2.14276       -13597.574      0.52374716    -13597.051      9879.9592    
      5700   1.8069534     -13597.584      0.44166715    -13597.142      9879.5459    
      5800   1.5946371     -13597.582      0.38977145    -13597.192      9877.1284    
      5900   1.487907      -13597.575      0.3636838     -13597.211      9878.014     
      6000   1.4195673     -13597.55       0.34697976    -13597.203      9881.0359    
      6100   1.4160391     -13597.511      0.34611738    -13597.165      9881.0597    
      6200   1.4864084     -13597.448      0.36331749    -13597.085      9878.8535    
      6300   1.8086372     -13597.373      0.44207873    -13596.931      9879.8668    
      6400   2.7300684     -13597.286      0.66730085    -13596.619      9883.893     
      6500   4.9678598     -13597.225      1.2142762     -13596.011      9884.1235    
      6600   8.4052493     -13597.215      2.054465      -13595.16       9879.7242    
      6700   11.035854     -13597.289      2.6974544     -13594.591      9879.9793    
      6800   10.898463     -13597.365      2.6638723     -13594.701      9884.1126    
      6900   8.7743758     -13597.399      2.1446893     -13595.254      9882.0598    
      7000   6.3307416     -13597.373      1.5474005     -13595.825      9876.4484    
      7100   4.538979      -13597.339      1.1094464     -13596.23       9876.6754    
      7200   3.3484339     -13597.295      0.81844573    -13596.476      9880.4101    
      7300   2.632116      -13597.261      0.64335869    -13596.617      9879.6293    
      7400   2.1892638     -13597.229      0.53511393    -13596.694      9875.7983    
      7500   1.9808492     -13597.214      0.48417189    -13596.729      9876.217     
      7600   1.9226973     -13597.204      0.46995802    -13596.734      9879.7846    
      7700   2.0396557     -13597.208      0.49854574    -13596.71       9879.4079    
      7800   2.3294335     -13597.219      0.5693751     -13596.65       9875.7199    
      7900   2.9167856     -13597.249      0.71293948    -13596.536      9876.0809    
      8000   3.9408709     -13597.293      0.96325298    -13596.33       9880.269     
      8100   5.7158778     -13597.361      1.3971116     -13595.964      9880.2995    
      8200   8.4828659     -13597.447      2.0734366     -13595.373      9875.9545    
      8300   11.839621     -13597.567      2.8939162     -13594.673      9876.7527    
      8400   13.355971     -13597.696      3.2645523     -13594.431      9882.6068    
      8500   10.447086     -13597.786      2.5535438     -13595.233      9882.1814    
      8600   5.446846      -13597.805      1.3313531     -13596.473      9877.5084    
      8700   2.4961728     -13597.795      0.6101306     -13597.185      9878.2356    
      8800   1.4201918     -13597.792      0.34713241    -13597.445      9881.7155    
      8900   1.1313614     -13597.817      0.27653461    -13597.54       9881.4952    
      9000   1.166726      -13597.866      0.28517866    -13597.581      9878.5562    
      9100   1.3667321     -13597.928      0.33406544    -13597.594      9878.4123    
      9200   1.643099      -13597.982      0.40161682    -13597.58       9880.8881    
      9300   1.9621787     -13598.014      0.47960832    -13597.534      9880.6861    
      9400   2.326393      -13598.016      0.56863193    -13597.447      9877.7667    
      9500   2.7971573     -13597.992      0.68369916    -13597.308      9877.9222    
      9600   3.4608612     -13597.946      0.84592593    -13597.101      9881.4205    
      9700   4.4301854     -13597.892      1.0828544     -13596.809      9881.8725    
      9800   5.7935527     -13597.847      1.4160974     -13596.431      9878.501     
      9900   7.4094653     -13597.829      1.8110691     -13596.017      9878.5791    
     10000   8.6609187     -13597.827      2.1169574     -13595.71       9882.6704    
     10100   8.6735274     -13597.821      2.1200393     -13595.701      9882.3446    
     10200   7.0631194     -13597.802      1.726413      -13596.076      9877.5952    
     10300   4.4728919     -13597.779      1.093293      -13596.686      9877.0457    
     10400   2.2571896     -13597.761      0.55171679    -13597.209      9879.9382    
     10500   1.1042125     -13597.75       0.26989872    -13597.48       9879.5626    
     10600   0.66515548    -13597.75       0.16258157    -13597.587      9876.9998    
     10700   0.52882668    -13597.757      0.12925921    -13597.627      9876.9132    
     10800   0.53753013    -13597.772      0.13138657    -13597.641      9879.0278    
     10900   0.64325316    -13597.796      0.15722807    -13597.639      9879.2092    
     11000   0.86072002    -13597.83       0.21038272    -13597.619      9877.209     
     11100   1.2193652     -13597.872      0.29804509    -13597.574      9877.1181    
     11200   1.7920254     -13597.926      0.43801835    -13597.488      9879.64      
     11300   2.6198267     -13597.983      0.64035488    -13597.342      9880.3046    
     11400   3.6653269     -13598.025      0.89590274    -13597.129      9878.2888    
     11500   4.5523715     -13597.993      1.1127199     -13596.88       9878.9417    
     11600   4.5073016     -13597.764      1.1017036     -13596.663      9883.6304    
     11700   2.9568357     -13597.279      0.72272877    -13596.557      9885.0195    
     11800   1.5633596     -13596.861      0.38212639    -13596.479      9882.4311    
     11900   3.011312      -13597.116      0.73604422    -13596.38       9881.4114    
     12000   6.1873775     -13597.651      1.5123586     -13596.138      9884.3164    
     12100   7.8542675     -13597.906      1.9197905     -13595.986      9882.933     
     12200   7.3826599     -13597.884      1.8045172     -13596.08       9878.27      
     12300   5.9023227     -13597.771      1.4426836     -13596.328      9877.2909    
     12400   4.48289       -13597.656      1.0957368     -13596.56       9880.3141    
     12500   3.4613661     -13597.546      0.84604933    -13596.7        9880.3962    
     12600   2.8349309     -13597.454      0.69293203    -13596.761      9877.0308    
     12700   2.4360319     -13597.37       0.59543058    -13596.775      9876.493     
     12800   2.2042586     -13597.302      0.53877904    -13596.763      9879.5891    
     12900   2.0674357     -13597.238      0.5053359     -13596.733      9880.0421    
     13000   2.0548277     -13597.185      0.5022542     -13596.683      9876.8219    
     13100   2.1480579     -13597.134      0.5250421     -13596.609      9876.2501    
     13200   2.4230144     -13597.093      0.59224874    -13596.501      9879.7433    
     13300   2.8651131     -13597.049      0.70030935    -13596.348      9880.4895    
     13400   3.5712333     -13597.008      0.87290377    -13596.135      9876.673     
     13500   4.5174795     -13596.958      1.1041914     -13595.854      9875.8725    
     13600   5.7190207     -13596.922      1.3978798     -13595.524      9880.4339    
     13700   6.7844044     -13596.866      1.6582877     -13595.207      9881.4214    
     13800   7.3684633     -13596.806      1.8010471     -13595.005      9876.501     
     13900   7.1144701     -13596.744      1.7389645     -13595.005      9875.6467    
     14000   6.08704       -13596.712      1.4878334     -13595.224      9880.5751    
     14100   4.4016132     -13596.676      1.0758706     -13595.6        9881.0236    
     14200   2.6926559     -13596.662      0.65815626    -13596.004      9876.6006    
     14300   1.4562693     -13596.657      0.35595069    -13596.301      9876.1376    
     14400   0.83565309    -13596.667      0.2042557     -13596.463      9879.3212    
     14500   0.56661853    -13596.677      0.13849654    -13596.538      9879.643     
     14600   0.49800233    -13596.695      0.12172493    -13596.573      9877.0606    
     14700   0.52354419    -13596.716      0.12796803    -13596.588      9876.6006    
     14800   0.65554943    -13596.748      0.1602336     -13596.588      9878.9786    
     14900   0.8851247     -13596.786      0.21634787    -13596.57       9879.5068    
     15000   1.2926193     -13596.841      0.31595032    -13596.525      9877.0537    
     15100   1.9256911     -13596.908      0.47068979    -13596.438      9876.4421    
     15200   2.9035823     -13597.002      0.70971223    -13596.292      9879.309     
     15300   4.1621342     -13597.109      1.0173356     -13596.092      9880.3033    
     15400   5.4791344     -13597.227      1.3392452     -13595.888      9877.6787    
     15500   6.2120549     -13597.288      1.5183904     -13595.77       9877.59      
     15600   5.771331      -13597.196      1.4106658     -13595.785      9882.1204    
     15700   3.950967      -13596.864      0.96572074    -13595.899      9882.7746    
     15800   1.8869261     -13596.397      0.46121461    -13595.936      9879.3153    
     15900   1.4603125     -13596.288      0.35693897    -13595.932      9878.2342    
     16000   3.4341355     -13596.734      0.83939346    -13595.894      9881.3635    
     16100   6.0425611     -13597.284      1.4769616     -13595.807      9882.7248    
     16200   6.9646706     -13597.562      1.7023495     -13595.86       9877.8722    
     16300   6.2705647     -13597.594      1.5326917     -13596.062      9876.2806    
     16400   5.0725781     -13597.56       1.2398721     -13596.321      9879.0061    
     16500   3.919189      -13597.507      0.95795336    -13596.549      9879.6018    
     16600   3.0530272     -13597.461      0.74624052    -13596.715      9876.9985    
     16700   2.4365416     -13597.418      0.59555515    -13596.823      9876.7106    
     16800   2.0436964     -13597.384      0.4995334     -13596.884      9879.4854    
     16900   1.7646035     -13597.342      0.43131573    -13596.91       9880.3395    
     17000   1.6083184     -13597.3        0.39311553    -13596.907      9878.2499    
     17100   1.5706068     -13597.258      0.3838978     -13596.874      9877.932     
     17200   1.7795437     -13597.227      0.4349675     -13596.792      9880.6853    
     17300   2.5192601     -13597.2        0.61577373    -13596.584      9881.6165    
     17400   4.9843397     -13597.192      1.2183043     -13595.973      9878.6191    
     17500   11.126139     -13597.2        2.7195223     -13594.48       9877.2982    
     17600   17.728752     -13597.256      4.3333754     -13592.923      9881.3421    
     17700   16.582107     -13597.233      4.0531052     -13593.18       9881.4784    
     17800   10.734691     -13597.164      2.6238422     -13594.54       9876.3848    
     17900   6.4331839     -13597.129      1.5724401     -13595.557      9875.7929    
     18000   4.3175359     -13597.129      1.0553199     -13596.074      9879.2835    
     18100   3.2930537     -13597.138      0.80490935    -13596.333      9879.5036    
     18200   2.8017555     -13597.162      0.68482307    -13596.477      9876.4018    
     18300   2.5925323     -13597.198      0.6336834     -13596.564      9876.1296    
     18400   2.5802654     -13597.248      0.63068504    -13596.617      9879.0924    
     18500   2.6701751     -13597.299      0.65266136    -13596.647      9879.528     
     18600   2.8528354     -13597.352      0.69730836    -13596.655      9876.9019    
     18700   3.1004515     -13597.402      0.75783226    -13596.644      9876.8181    
     18800   3.4071166     -13597.447      0.83278932    -13596.614      9880.0534    
     18900   3.6976969     -13597.47       0.90381483    -13596.566      9880.969     
     19000   3.9706132     -13597.47       0.97052278    -13596.5        9878.7446    
     19100   4.2354571     -13597.452      1.0352576     -13596.416      9879.0694    
     19200   4.5980956     -13597.439      1.1238961     -13596.315      9882.6943    
     19300   5.1321674     -13597.456      1.2544373     -13596.202      9883.4667    
     19400   5.900239      -13597.54       1.4421743     -13596.098      9880.169     
     19500   6.650322      -13597.697      1.6255144     -13596.072      9879.085     
     19600   6.7970073     -13597.887      1.6613682     -13596.226      9881.3854    
     19700   5.8521283     -13598.026      1.4304148     -13596.596      9880.8474    
     19800   4.2505842     -13598.093      1.0389551     -13597.054      9877.6773    
     19900   2.7364935     -13598.095      0.66887133    -13597.426      9877.7259    
     20000   1.6264252     -13598.045      0.39754129    -13597.648      9880.5024    
     20100   0.86337298    -13597.959      0.21103117    -13597.748      9881.1846    
     20200   0.3970124     -13597.879      0.097040322   -13597.782      9879.6865    
     20300   0.20363273    -13597.84       0.04977322    -13597.79       9879.6904    
     20400   0.27750334    -13597.857      0.067829149   -13597.789      9881.3485    
     20500   0.56671903    -13597.913      0.13852111    -13597.775      9881.0983    
     20600   1.0481888     -13597.978      0.25620504    -13597.721      9878.5441    
     20700   1.8010087     -13598.018      0.44021412    -13597.578      9877.6079    
     20800   3.102634      -13598.02       0.75836573    -13597.262      9879.6092    
     20900   5.0793803     -13597.966      1.2415348     -13596.725      9880.0253    
     21000   7.1337391     -13597.861      1.7436743     -13596.117      9877.0566    
     21100   8.0834714     -13597.727      1.975814      -13595.751      9877.0226    
     21200   7.6668716     -13597.605      1.873986      -13595.731      9880.9917    
     21300   6.4832561     -13597.493      1.5846791     -13595.908      9881.595     
     21400   5.2809829     -13597.415      1.2908118     -13596.124      9878.2871    
     21500   4.3699749     -13597.378      1.0681373     -13596.31       9877.8834    
     21600   3.7403467     -13597.367      0.91423956    -13596.453      9880.5819    
     21700   3.2569251     -13597.352      0.79607855    -13596.556      9880.3066    
     21800   2.8875899     -13597.332      0.70580328    -13596.626      9877.0444    
     21900   2.6271793     -13597.309      0.64215204    -13596.667      9876.611     
     22000   2.4812705     -13597.289      0.60648808    -13596.683      9879.2153    
     22100   2.4348721     -13597.269      0.59514708    -13596.673      9879.2458    
     22200   2.534038      -13597.255      0.61938583    -13596.635      9876.291     
     22300   2.8657128     -13597.256      0.70045593    -13596.556      9876.0237    
     22400   3.6200981     -13597.283      0.88484762    -13596.398      9879.0683    
     22500   5.1453614     -13597.329      1.2576623     -13596.071      9879.4211    
     22600   8.1129356     -13597.388      1.9830158     -13595.405      9876.0882    
     22700   12.559019     -13597.442      3.069756      -13594.372      9876.5196    
     22800   14.961758     -13597.346      3.6570491     -13593.689      9882.7092    
     22900   11.12116      -13596.898      2.7183053     -13594.18       9885.1913    
     23000   5.691101      -13596.557      1.3910555     -13595.166      9880.9397    
     23100   3.408078      -13596.641      0.83302432    -13595.808      9880.7441    
     23200   3.0298225     -13596.924      0.74056867    -13596.183      9883.9727    
     23300   2.9886532     -13597.21       0.73050582    -13596.48       9881.9875    
     23400   2.8425683     -13597.373      0.69479879    -13596.678      9878.3021    
     23500   2.5912991     -13597.434      0.63338196    -13596.8        9877.6217    
     23600   2.3254519     -13597.437      0.5684019     -13596.869      9879.2223    
     23700   2.113453      -13597.415      0.51658376    -13596.898      9878.719     
     23800   1.9915552     -13597.384      0.48678871    -13596.898      9876.4946    
     23900   2.0251049     -13597.364      0.49498916    -13596.869      9876.5694    
     24000   2.2446285     -13597.358      0.54864651    -13596.809      9878.6935    
     24100   2.7074787     -13597.363      0.66177933    -13596.701      9878.618     
     24200   3.5121216     -13597.375      0.85845532    -13596.516      9876.409     
     24300   4.8502951     -13597.389      1.1855403     -13596.204      9876.9045    
     24400   6.8035365     -13597.37       1.6629641     -13595.707      9880.4246    
     24500   9.0231197     -13597.242      2.2054889     -13595.036      9881.5834    
     24600   10.761925     -13597.011      2.6304987     -13594.381      9879.927     
     24700   11.762264     -13596.971      2.875008      -13594.096      9880.8649    
     24800   10.783102     -13597.24       2.6356752     -13594.604      9882.8016    
     24900   6.8795981     -13597.503      1.6815556     -13595.821      9880.3226    
     25000   3.4226533     -13597.621      0.83658691    -13596.784      9877.0136    
     25100   1.956059      -13597.68       0.4781125     -13597.202      9877.3523    
     25200   1.4308849     -13597.714      0.34974609    -13597.364      9879.0012    
     25300   1.2582256     -13597.742      0.30754358    -13597.434      9878.4922    
     25400   1.2257567     -13597.763      0.29960734    -13597.463      9877.0138    
     25500   1.2771541     -13597.777      0.31217022    -13597.465      9877.6565    
     25600   1.3431279     -13597.769      0.32829595    -13597.441      9879.6869    
     25700   1.3512942     -13597.719      0.33029201    -13597.388      9880.0199    
     25800   1.2006917     -13597.603      0.29348079    -13597.31       9879.217     
     25900   0.91230422    -13597.441      0.22299126    -13597.218      9880.6088    
     26000   0.75670932    -13597.314      0.18495975    -13597.129      9883.4808    
     26100   1.4639581     -13597.359      0.35783005    -13597.001      9883.1653    
     26200   3.5563223     -13597.59       0.86925914    -13596.72       9879.6372    
     26300   6.2544119     -13597.842      1.5287435     -13596.313      9878.9748    
     26400   7.8898989     -13597.959      1.9284998     -13596.03       9881.2941    
     26500   7.878512      -13597.961      1.9257165     -13596.036      9880.2102    
     26600   6.721733      -13597.908      1.6429692     -13596.265      9876.8941    
     26700   5.2804856     -13597.855      1.2906902     -13596.564      9877.6882    
     26800   3.9866589     -13597.8        0.97444477    -13596.826      9880.6921    
     26900   3.0304508     -13597.755      0.74072225    -13597.014      9880.2156    
     27000   2.3607485     -13597.712      0.57702931    -13597.135      9877.8246    
     27100   1.9439599     -13597.68       0.47515518    -13597.204      9878.5271    
     27200   1.6840611     -13597.649      0.41162902    -13597.237      9881.1033    
     27300   1.5664349     -13597.623      0.38287808    -13597.241      9880.8263    
     27400   1.563849      -13597.597      0.38224602    -13597.214      9878.4659    
     27500   1.7614082     -13597.574      0.4305347     -13597.144      9878.9546    
     27600   2.3596748     -13597.548      0.57676688    -13596.972      9881.7899    
     27700   4.1219444     -13597.523      1.0075121     -13596.516      9881.7951    
     27800   8.4713357     -13597.483      2.0706183     -13595.413      9878.754     
     27900   14.44293      -13597.437      3.5302336     -13593.907      9879.8159    
     28000   16.015848     -13597.379      3.9146965     -13593.464      9884.3505    
     28100   12.072198     -13597.326      2.9507642     -13594.375      9882.6926    
     28200   7.4970264     -13597.272      1.8324713     -13595.439      9877.5826    
     28300   4.7592881     -13597.232      1.1632958     -13596.068      9877.5767    
     28400   3.3604756     -13597.195      0.82138904    -13596.373      9880.5974    
     28500   2.6454866     -13597.167      0.64662683    -13596.52       9880.0308    
     28600   2.2504543     -13597.141      0.55007049    -13596.591      9876.8536    
     28700   2.0614151     -13597.124      0.50386431    -13596.62       9877.0276    
     28800   2.0089649     -13597.109      0.49104412    -13596.618      9879.9801    
     28900   2.0990507     -13597.102      0.51306345    -13596.589      9879.7987    
     29000   2.3376846     -13597.098      0.57139188    -13596.526      9876.7443    
     29100   2.7931399     -13597.101      0.6827172     -13596.419      9876.9159    
     29200   3.5454203     -13597.11       0.86659441    -13596.243      9880.3929    
     29300   4.7224931     -13597.127      1.1543021     -13595.973      9880.5877    
     29400   6.383265      -13597.149      1.5602386     -13595.589      9877.0091    
     29500   8.3408284     -13597.184      2.0387189     -13595.145      9877.3013    
     29600   9.8109397     -13597.229      2.3980529     -13594.831      9881.833     
     29700   9.5707633     -13597.282      2.3393475     -13594.942      9881.7028    
     29800   7.1460623     -13597.337      1.7466865     -13595.59       9877.1282    
     29900   4.0610305     -13597.391      0.99262316    -13596.398      9876.8551    
     30000   2.1279254     -13597.437      0.5201212     -13596.917      9879.6951    
     30100   1.3380293     -13597.478      0.32704973    -13597.151      9879.4511    
     30200   1.0896565     -13597.518      0.26634084    -13597.252      9877.0171    
     30300   1.0806191     -13597.562      0.26413187    -13597.298      9876.9926    
     30400   1.2233486     -13597.613      0.29901871    -13597.314      9879.2212    
     30500   1.5029785     -13597.672      0.36736766    -13597.304      9879.4317    
     30600   1.9562614     -13597.742      0.47816199    -13597.263      9877.373     
     30700   2.6351248     -13597.823      0.64409414    -13597.178      9877.3929    
     30800   3.6088593     -13597.916      0.88210058    -13597.034      9880.0798    
     30900   4.8442017     -13598.008      1.1840509     -13596.824      9880.8192    
     31000   6.0985462     -13598.067      1.4906458     -13596.577      9878.9982    
     31100   6.7072268     -13598.011      1.6394235     -13596.372      9880.1995    
     31200   5.8587115     -13597.721      1.4320239     -13596.289      9885.2924    
     31300   3.9200319     -13597.263      0.95815939    -13596.305      9888.0566    
     31400   3.2172247     -13597.127      0.78637473    -13596.34       9886.0378    
     31500   4.5207384     -13597.502      1.1049879     -13596.397      9883.9587    
     31600   5.6488574     -13597.943      1.38073       -13596.562      9883.9281    
     31700   5.1045741     -13598.147      1.2476928     -13596.9        9881.9924    
     31800   3.6259115     -13598.177      0.88626857    -13597.291      9878.403     
     31900   2.2781227     -13598.14       0.55683338    -13597.583      9877.5718    
     32000   1.4064667     -13598.094      0.34377763    -13597.75       9879.1774    
     32100   0.89910203    -13598.052      0.21976429    -13597.832      9879.1178    
     32200   0.6230201     -13598.021      0.15228257    -13597.868      9877.3614    
     32300   0.48111481    -13597.999      0.11759717    -13597.881      9877.1518    
     32400   0.438837      -13597.987      0.10726336    -13597.88       9878.7762    
     32500   0.47978036    -13597.983      0.117271      -13597.865      9879.1138    
     32600   0.64462895    -13597.986      0.15756435    -13597.828      9877.5948    
     32700   1.021945      -13597.993      0.24979036    -13597.743      9877.4806    
     32800   1.837676      -13598.003      0.44917657    -13597.554      9879.9918    
     32900   3.2403506     -13598.001      0.7920273     -13597.209      9881.3239    
     33000   4.9217789     -13597.974      1.2030128     -13596.771      9879.6702    
     33100   6.0377786     -13597.893      1.4757926     -13596.417      9880.1897    
     33200   6.306011      -13597.79       1.5413557     -13596.249      9884.2342    
     33300   6.1088791     -13597.737      1.4931715     -13596.244      9885.1155    
     33400   5.8423994     -13597.779      1.4280368     -13596.351      9881.5679    
     33500   5.3411758     -13597.838      1.3055245     -13596.533      9880.261     
     33600   4.5476039     -13597.857      1.1115546     -13596.745      9882.6142    
     33700   3.6603458     -13597.836      0.89468523    -13596.942      9882.6715    
     33800   2.985084      -13597.828      0.7296334     -13597.099      9879.4692    
     33900   2.5170349     -13597.831      0.61522983    -13597.216      9878.4231    
     34000   2.1910459     -13597.837      0.53554951    -13597.301      9880.3063    
     34100   1.89704       -13597.822      0.4636867     -13597.359      9880.3003    
     34200   1.6531751     -13597.796      0.40407967    -13597.392      9877.6204    
     34300   1.4491091     -13597.757      0.35420056    -13597.403      9876.7885    
     34400   1.3623344     -13597.717      0.33299054    -13597.384      9878.8696    
     34500   1.457504      -13597.673      0.35625248    -13597.316      9879.4176    
     34600   1.9680163     -13597.631      0.48103518    -13597.15       9876.9034    
     34700   3.2205365     -13597.579      0.78718423    -13596.791      9876.0714    
     34800   5.5855971     -13597.528      1.3652675     -13596.162      9879.6497    
     34900   8.4344305     -13597.459      2.0615977     -13595.398      9881.3777    
     35000   10.310532     -13597.4        2.5201664     -13594.879      9877.6934    
     35100   9.9321194     -13597.332      2.4276724     -13594.904      9876.4002    
     35200   7.8664374     -13597.296      1.9227652     -13595.373      9880.2168    
     35300   5.4002756     -13597.258      1.3199701     -13595.938      9880.9489    
     35400   3.5874236     -13597.244      0.87686113    -13596.368      9877.2566    
     35500   2.4592284     -13597.232      0.6011004     -13596.631      9876.1909    
     35600   1.8739634     -13597.237      0.45804617    -13596.779      9879.0168    
     35700   1.5617583     -13597.24       0.38173501    -13596.858      9879.882     
     35800   1.4701225     -13597.256      0.35933678    -13596.897      9877.3331    
     35900   1.493176      -13597.271      0.36497166    -13596.906      9876.4545    
     36000   1.6820999     -13597.298      0.41114967    -13596.887      9879.0721    
     36100   2.0096921     -13597.322      0.49122184    -13596.831      9880.2367    
     36200   2.6325662     -13597.36       0.64346875    -13596.716      9877.8177    
     36300   3.7122776     -13597.393      0.90737874    -13596.485      9876.9303    
     36400   5.8696278     -13597.439      1.4346921     -13596.005      9880.5595    
     36500   9.9670258     -13597.475      2.4362045     -13595.039      9883.1828    
     36600   15.923408     -13597.525      3.8921016     -13593.633      9880.7034    
     36700   18.40495      -13597.567      4.4986562     -13593.069      9879.4182    
     36800   12.786573     -13597.673      3.1253764     -13594.548      9882.727     
     36900   5.5749585     -13597.741      1.3626672     -13596.378      9882.7949    
     37000   2.5730629     -13597.768      0.62892457    -13597.139      9879.5474    
     37100   1.6009837     -13597.749      0.39132272    -13597.358      9878.5997    
     37200   1.2044783     -13597.72       0.29440632    -13597.425      9880.9213    
     37300   1.0015665     -13597.688      0.24480931    -13597.443      9881.8355    
     37400   1.0221763     -13597.686      0.2498469     -13597.437      9879.5449    
     37500   1.2175564     -13597.702      0.29760297    -13597.405      9878.2093    
     37600   1.6142013     -13597.73       0.39455345    -13597.335      9880.0257    
     37700   2.1530088     -13597.733      0.52625225    -13597.207      9880.8126    
     37800   2.9271715     -13597.713      0.71547805    -13596.998      9877.9593    
     37900   3.8874224     -13597.647      0.95018875    -13596.697      9876.296     
     38000   5.0761339     -13597.562      1.2407412     -13596.322      9879.2401    
     38100   6.155212      -13597.443      1.5044964     -13595.938      9881.0393    
     38200   6.9044666     -13597.331      1.6876341     -13595.644      9877.7101    
     38300   6.909358      -13597.207      1.6888297     -13595.518      9875.8328    
     38400   6.314305      -13597.119      1.543383      -13595.575      9879.3876    
     38500   5.1713262     -13597.03       1.2640088     -13595.766      9881.0368    
     38600   3.9377298     -13596.977      0.96248522    -13596.015      9877.548     
     38700   2.7279864     -13596.928      0.66679197    -13596.261      9875.8117    
     38800   1.8009329     -13596.91       0.44019559    -13596.47       9878.6219    
     38900   1.093568      -13596.893      0.26729692    -13596.625      9879.8321    
     39000   0.68165515    -13596.895      0.16661453    -13596.728      9877.4705    
     39100   0.43789759    -13596.898      0.10703374    -13596.791      9876.3735    
     39200   0.34867718    -13596.915      0.085225916   -13596.829      9878.1901    
     39300   0.31837162    -13596.932      0.077818436   -13596.854      9879.105     
     39400   0.36291946    -13596.959      0.088707106   -13596.871      9877.5834    
     39500   0.44613894    -13596.99       0.10904815    -13596.881      9876.6987    
     39600   0.61818177    -13597.032      0.15109996    -13596.881      9878.1466    
     39700   0.91207666    -13597.081      0.22293564    -13596.858      9879.1547    
     39800   1.610313      -13597.148      0.39360305    -13596.754      9877.8371    
     39900   3.6245236     -13597.232      0.88592935    -13596.346      9876.9824    
     40000   8.8421095     -13597.341      2.1612452     -13595.18       9880.2254    
     40100   14.803383     -13597.316      3.6183381     -13593.698      9884.5651    
     40200   13.615746     -13596.789      3.328048      -13593.461      9884.6047    
     40300   7.0766594     -13595.796      1.7297226     -13594.066      9883.1585    
     40400   5.5376964     -13595.866      1.3535593     -13594.512      9886.0204    
     40500   8.0117116     -13596.971      1.958274      -13595.013      9886.7827    
     40600   7.7628492     -13597.753      1.8974455     -13595.856      9880.8144    
     40700   5.5906036     -13597.973      1.3664912     -13596.606      9877.8441    
     40800   3.8152541     -13597.995      0.93254892    -13597.062      9878.9139    
     40900   2.6915375     -13597.953      0.65788288    -13597.295      9879.6399    
     41000   2.0135006     -13597.897      0.49215276    -13597.405      9878.265     
     41100   1.5726888     -13597.834      0.38440669    -13597.45       9877.6285    
     41200   1.3055627     -13597.777      0.31911401    -13597.458      9879.2477    
     41300   1.1461763     -13597.722      0.28015576    -13597.441      9880.3718    
     41400   1.1296326     -13597.678      0.27611206    -13597.402      9879.2389    
     41500   1.2726396     -13597.644      0.31106674    -13597.333      9878.4166    
     41600   1.7019185     -13597.629      0.41599385    -13597.213      9879.9989    
     41700   2.5354991     -13597.62       0.61974297    -13597          9881.2236    
     41800   3.9691685     -13597.621      0.97016965    -13596.651      9879.4513    
     41900   5.7806348     -13597.608      1.4129399     -13596.195      9877.9843    
     42000   7.3129989     -13597.59       1.7874902     -13595.803      9880.1143    
     42100   7.7323121     -13597.547      1.8899814     -13595.657      9881.6132    
     42200   7.1224411     -13597.503      1.7409128     -13595.762      9879.0484    
     42300   5.9984537     -13597.448      1.4661806     -13595.982      9877.1014    
     42400   4.9658767     -13597.409      1.2137915     -13596.195      9879.0292    
     42500   4.1339311     -13597.367      1.010442      -13596.357      9880.3586    
     42600   3.5809764     -13597.343      0.87528525    -13596.468      9878.2676    
     42700   3.1894044     -13597.318      0.77957471    -13596.539      9876.6951    
     42800   2.9870878     -13597.31       0.73012319    -13596.58       9878.517     
     42900   2.879549      -13597.303      0.70383786    -13596.599      9879.9608    
     43000   2.9176722     -13597.311      0.71315618    -13596.598      9878.1618    
     43100   3.0299181     -13597.319      0.74059206    -13596.579      9876.687     
     43200   3.284475      -13597.344      0.80281249    -13596.541      9878.5438    
     43300   3.6202914     -13597.368      0.88489487    -13596.483      9880.2074    
     43400   4.1181699     -13597.409      1.0065896     -13596.402      9878.5017    
     43500   4.7271321     -13597.449      1.155436      -13596.293      9876.9305    
     43600   5.5435259     -13597.508      1.3549842     -13596.153      9879.0165    
     43700   6.4160976     -13597.565      1.5682638     -13595.997      9881.0461    
     43800   7.0909456     -13597.635      1.7332145     -13595.902      9879.2951    
     43900   6.9219112     -13597.683      1.691898      -13595.991      9877.626     
     44000   5.7594296     -13597.703      1.4077568     -13596.295      9879.8512    
     44100   4.0036072     -13597.652      0.9785874     -13596.674      9881.861     
     44200   2.4863215     -13597.573      0.60772268    -13596.965      9880.581     
     44300   1.5637147     -13597.518      0.38221319    -13597.135      9879.3822    
     44400   1.268133      -13597.542      0.30996522    -13597.232      9880.6209    
     44500   1.3114554     -13597.616      0.32055434    -13597.296      9881.3742    
     44600   1.4808023     -13597.702      0.3619472     -13597.34       9879.5501    
     44700   1.6090791     -13597.757      0.39330144    -13597.364      9877.8062    
     44800   1.7242013     -13597.783      0.42144036    -13597.362      9878.5302    
     44900   1.8447005     -13597.779      0.45089355    -13597.328      9879.4876    
     45000   2.1074621     -13597.763      0.51511943    -13597.248      9878.1626    
     45100   2.6253768     -13597.732      0.64171148    -13597.09       9876.7128    
     45200   3.7225569     -13597.702      0.90989126    -13596.792      9878.1101    
     45300   5.7198845     -13597.661      1.3980909     -13596.263      9880.081     
     45400   8.6641057     -13597.623      2.1177364     -13595.505      9878.9296    
     45500   11.196799     -13597.575      2.7367935     -13594.838      9877.2534    
     45600   11.392264     -13597.548      2.7845705     -13594.764      9879.185     
     45700   8.8625833     -13597.522      2.1662495     -13595.355      9880.7552    
     45800   5.5946369     -13597.515      1.3674771     -13596.147      9878.4863    
     45900   3.225863      -13597.51       0.78848615    -13596.722      9876.5074    
     46000   2.0358748     -13597.519      0.4976216     -13597.022      9877.6709    
     46100   1.5310271     -13597.529      0.37422348    -13597.154      9878.8926    
     46200   1.4013065     -13597.547      0.34251633    -13597.205      9877.7763    
     46300   1.4491381     -13597.568      0.35420764    -13597.213      9876.5197    
     46400   1.6460934     -13597.599      0.40234873    -13597.196      9877.596     
     46500   1.9495283     -13597.633      0.47651623    -13597.157      9878.9773    
     46600   2.4070448     -13597.68       0.58834536    -13597.092      9878.0391    
     46700   3.0078148     -13597.732      0.73518942    -13596.997      9876.7473    
     46800   3.8009971     -13597.801      0.92906414    -13596.872      9878.0096    
     46900   4.7115967     -13597.878      1.1516387     -13596.727      9879.7493    
     47000   5.6502404     -13597.976      1.381068      -13596.595      9878.7839    
     47100   6.3528683     -13598.088      1.5528089     -13596.535      9877.2548    
     47200   6.5879248     -13598.227      1.6102629     -13596.617      9878.381     
     47300   6.0953766     -13598.379      1.4898711     -13596.889      9879.6789    
     47400   4.9388962     -13598.541      1.2071967     -13597.334      9878.1637    
     47500   3.4726733     -13598.691      0.84881312    -13597.842      9876.3963    
     47600   2.2981607     -13598.826      0.5617312     -13598.264      9876.9157    
     47700   1.6501477     -13598.94       0.4033397     -13598.536      9877.6511    
     47800   1.4424014     -13599.046      0.35256103    -13598.693      9876.8324    
     47900   1.509758      -13599.151      0.36902476    -13598.782      9875.9432    
     48000   1.7852488     -13599.263      0.43636199    -13598.827      9876.523     
     48100   2.2284497     -13599.385      0.54469198    -13598.84       9877.4173    
     48200   2.8300158     -13599.518      0.69173065    -13598.827      9877.1228    
     48300   3.5409604     -13599.66       0.8655043     -13598.795      9876.7052    
     48400   4.3047611     -13599.812      1.0521974     -13598.759      9877.7461    
     48500   5.0371753     -13599.978      1.2312187     -13598.747      9879.1914    
     48600   5.6577181     -13600.177      1.3828958     -13598.794      9879.2485    
     48700   5.99471       -13600.404      1.4652655     -13598.938      9878.7862    
     48800   5.8159082     -13600.625      1.4215616     -13599.203      9879.4854    
     48900   4.995552      -13600.781      1.2210449     -13599.56       9880.3808    
     49000   3.8051764     -13600.859      0.93008565    -13599.929      9880.0548    
     49100   2.6954916     -13600.898      0.65884937    -13600.239      9879.4785    
     49200   1.9458985     -13600.944      0.47562902    -13600.468      9879.8109    
     49300   1.5616376     -13601.019      0.38170549    -13600.637      9880.2849    
     49400   1.4534327     -13601.129      0.35525735    -13600.774      9879.8832    
     49500   1.5136842     -13601.274      0.36998441    -13600.904      9879.1889    
     49600   1.5954313     -13601.44       0.38996556    -13601.05       9878.9951    
     49700   1.481569      -13601.596      0.36213462    -13601.234      9878.8452    
     49800   1.0710361     -13601.716      0.26178951    -13601.454      9878.1384    
     49900   0.64422676    -13601.794      0.15746604    -13601.636      9877.5409    
     50000   0.47502286    -13601.847      0.11610814    -13601.731      9877.4587    
     50100   0.49592811    -13601.893      0.12121794    -13601.772      9877.5235    
     50200   0.62763437    -13601.941      0.15341042    -13601.787      9877.3775    
     50300   0.85191575    -13601.993      0.20823072    -13601.785      9877.2043    
     50400   1.1865317     -13602.051      0.29001969    -13601.761      9877.4046    
     50500   1.6668692     -13602.112      0.40742689    -13601.704      9877.7854    
     50600   2.3252549     -13602.166      0.56835373    -13601.598      9878.0707    
     50700   3.1348289     -13602.193      0.76623503    -13601.426      9878.4672    
     50800   3.9521361     -13602.155      0.96600649    -13601.189      9879.511     
     50900   4.5737686     -13602.032      1.1179499     -13600.914      9880.8511    
     51000   5.0004696     -13601.861      1.2222469     -13600.639      9881.8883    
     51100   5.3777673     -13601.704      1.3144684     -13600.39       9883.0202    
     51200   5.7648204     -13601.596      1.4090744     -13600.187      9884.8598    
     51300   6.0837519     -13601.542      1.4870297     -13600.055      9887.0583    
     51400   6.130887      -13601.522      1.4985508     -13600.024      9888.3115    
     51500   5.6841637     -13601.556      1.3893598     -13600.167      9887.0602    
     51600   4.9605022     -13601.591      1.2124778     -13600.378      9886.2082    
     51700   3.9268149     -13601.73       0.95981734    -13600.771      9883.5832    
     51800   2.6889608     -13601.855      0.65725308    -13601.197      9880.8223    
     51900   1.6836164     -13601.923      0.41152033    -13601.512      9878.898     
     52000   1.0906813     -13601.95       0.26659133    -13601.684      9877.9892    
     52100   0.77399451    -13601.954      0.18918471    -13601.765      9877.5763    
     52200   0.60926109    -13601.949      0.14891951    -13601.8        9877.2007    
     52300   0.53045665    -13601.941      0.12965762    -13601.812      9876.8215    
     52400   0.51594331    -13601.934      0.12611018    -13601.808      9876.7822    
     52500   0.57168088    -13601.93       0.13973391    -13601.79       9876.9361    
     52600   0.72446302    -13601.93       0.17707791    -13601.752      9876.9627    
     52700   1.0385073     -13601.932      0.25383863    -13601.678      9876.9524    
     52800   1.6261541     -13601.935      0.39747502    -13601.538      9877.3492    
     52900   2.5767138     -13601.933      0.62981695    -13601.303      9878.0837    
     53000   3.7455431     -13601.915      0.91550971    -13600.999      9878.8134    
     53100   4.6326084     -13601.86       1.1323319     -13600.728      9879.6797    
     53200   4.8662084     -13601.759      1.1894299     -13600.569      9881.3942    
     53300   4.6605372     -13601.649      1.1391584     -13600.509      9883.431     
     53400   4.5324294     -13601.611      1.1078455     -13600.503      9884.4916    
     53500   4.735188      -13601.687      1.1574051     -13600.529      9884.2182    
     53600   5.0674834     -13601.834      1.2386268     -13600.596      9883.3169    
     53700   5.1442581     -13601.975      1.2573926     -13600.718      9882.1947    
     53800   4.7733288     -13602.062      1.1667277     -13600.895      9880.78      
     53900   4.0466923     -13602.088      0.98911853    -13601.099      9879.5024    
     54000   3.1975636     -13602.071      0.78156903    -13601.29       9878.8758    
     54100   2.4021042     -13602.029      0.58713773    -13601.442      9878.4982    
     54200   1.7410195     -13601.975      0.42555117    -13601.549      9877.9226    
     54300   1.2301538     -13601.918      0.30068209    -13601.617      9877.3587    
     54400   0.85511931    -13601.865      0.20901376    -13601.656      9877.2001    
     54500   0.59477232    -13601.82       0.14537807    -13601.674      9877.2538    
     54600   0.43133694    -13601.784      0.10543015    -13601.679      9877.087     
     54700   0.35648698    -13601.757      0.087134839   -13601.67       9876.8736    
     54800   0.37990382    -13601.739      0.092858533   -13601.646      9877.0074    
     54900   0.5520757     -13601.726      0.13494189    -13601.591      9877.3922    
     55000   0.98684666    -13601.713      0.2412114     -13601.472      9877.6034    
     55100   1.7621806     -13601.692      0.4307235     -13601.261      9877.7996    
     55200   2.7317803     -13601.642      0.66771928    -13600.974      9878.6795    
     55300   3.592842      -13601.541      0.87818551    -13600.663      9880.0468    
     55400   4.1590854     -13601.389      1.0165904     -13600.373      9880.8714    
     55500   4.512853      -13601.225      1.1030605     -13600.121      9881.1123    
     55600   4.9200674     -13601.114      1.2025945     -13599.911      9881.4755    
     55700   5.5553543     -13601.101      1.3578754     -13599.743      9881.6718    
     55800   6.3104542     -13601.189      1.5424418     -13599.647      9880.8526    
     55900   6.7048823     -13601.321      1.6388504     -13599.682      9879.5243    
     56000   6.1752485     -13601.401      1.5093939     -13599.892      9878.9817    
     56100   4.7420574     -13601.374      1.1590841     -13600.214      9879.0254    
     56200   3.0143572     -13601.252      0.73678856    -13600.516      9878.9147    
     56300   1.5414394     -13601.08       0.37676852    -13600.703      9879.1653    
     56400   0.56710779    -13600.919      0.13861613    -13600.78       9880.1499    
     56500   0.14721416    -13600.834      0.035983031   -13600.798      9880.8904    
     56600   0.22263277    -13600.858      0.054417333   -13600.803      9880.4219    
     56700   0.63250091    -13600.961      0.15459994    -13600.807      9879.2811    
     56800   1.2388474     -13601.093      0.30280705    -13600.79       9878.6607    
     56900   2.107597      -13601.219      0.5151524     -13600.704      9878.5478    
     57000   3.6605598     -13601.327      0.89473755    -13600.432      9878.2998    
     57100   6.7883856     -13601.411      1.6592608     -13599.752      9878.3123    
     57200   11.610948     -13601.451      2.8380226     -13598.613      9879.5864    
     57300   14.833533     -13601.411      3.6257075     -13597.785      9881.4928    
     57400   13.034337     -13601.349      3.1859363     -13598.163      9882.026     
     57500   8.4620664     -13601.351      2.0683526     -13599.282      9881.6493    
     57600   5.0051736     -13601.453      1.2233967     -13600.229      9880.6403    
     57700   3.4939237     -13601.565      0.85400728    -13600.711      9881.2631    
     57800   2.949887      -13601.698      0.72103033    -13600.977      9880.2676    
     57900   2.7925092     -13601.805      0.68256304    -13601.122      9879.1755    
     58000   2.7324661     -13601.871      0.66788691    -13601.203      9878.6329    
     58100   2.6798995     -13601.902      0.65503824    -13601.247      9878.3959    
     58200   2.624868      -13601.904      0.64158711    -13601.262      9877.8717    
     58300   2.5887214     -13601.887      0.63275192    -13601.254      9877.2981    
     58400   2.6064641     -13601.861      0.63708871    -13601.224      9877.2431    
     58500   2.7151837     -13601.83       0.66366263    -13601.167      9877.4565    
     58600   2.962188      -13601.8        0.72403701    -13601.076      9877.3352    
     58700   3.4166859     -13601.77       0.83512833    -13600.935      9877.1159    
     58800   4.1972265     -13601.741      1.0259131     -13600.715      9877.4604    
     58900   5.4866437     -13601.709      1.3410807     -13600.367      9878.1589    
     59000   7.4676119     -13601.669      1.8252817     -13599.844      9878.492     
     59100   9.9247305     -13601.614      2.4258664     -13599.188      9878.6624    
     59200   11.554171     -13601.528      2.8241447     -13598.704      9879.4156    
     59300   10.437539     -13601.394      2.5512102     -13598.843      9880.1129    
     59400   6.7770796     -13601.223      1.6564973     -13599.566      9879.7542    
     59500   3.3372413     -13601.078      0.81570996    -13600.263      9879.088     
     59600   1.5492755     -13600.994      0.37868388    -13600.615      9878.9962    
     59700   0.86910212    -13600.963      0.21243152    -13600.751      9879.0335    
     59800   0.67411049    -13600.969      0.16477042    -13600.805      9878.6304    
     59900   0.68835077    -13600.996      0.16825112    -13600.827      9878.0485    
     60000   0.8003233     -13601.027      0.19562016    -13600.832      9877.8158    
     60100   0.95948611    -13601.051      0.23452376    -13600.816      9877.676     
     60200   1.1520709     -13601.056      0.28159657    -13600.775      9877.2775    
     60300   1.4187142     -13601.044      0.34677124    -13600.698      9876.86      
     60400   1.8307744     -13601.016      0.44748964    -13600.568      9876.9538    
     60500   2.4681708     -13600.968      0.60328616    -13600.365      9877.4519    
     60600   3.37566       -13600.901      0.8251005     -13600.076      9877.652     
     60700   4.4773039     -13600.824      1.0943714     -13599.73       9877.727     
     60800   5.5341304     -13600.767      1.3526877     -13599.414      9878.3612    
     60900   6.2740652     -13600.759      1.5335473     -13599.226      9879.1668    
     61000   6.536399      -13600.8        1.5976686     -13599.202      9879.3494    
     61100   6.2176321     -13600.829      1.5197536     -13599.309      9879.4957    
     61200   5.2310463     -13600.751      1.2786059     -13599.472      9880.5417    
     61300   3.7135598     -13600.517      0.90769215    -13599.609      9881.9713    
     61400   2.5153657     -13600.297      0.61482183    -13599.682      9882.2795    
     61500   2.6114518     -13600.348      0.63830784    -13599.709      9881.3451    
     61600   3.9013593     -13600.671      0.9535953     -13599.717      9879.9396    
     61700   5.1383817     -13600.995      1.2559563     -13599.739      9878.4111    
     61800   5.422924      -13601.152      1.3255059     -13599.826      9876.8226    
     61900   4.8836522     -13601.187      1.1936936     -13599.993      9875.6256    
     62000   3.9973715     -13601.181      0.97706321    -13600.203      9875.4644    
     62100   3.1180322     -13601.182      0.76212945    -13600.42       9875.6523    
     62200   2.3845972     -13601.207      0.58285856    -13600.624      9875.482     
     62300   1.8241736     -13601.258      0.44587624    -13600.812      9875.282     
     62400   1.4175119     -13601.331      0.34647736    -13600.985      9875.5463    
     62500   1.1420261     -13601.419      0.27914137    -13601.14       9875.9169    
     62600   0.98728917    -13601.515      0.24131956    -13601.273      9876.02      
     62700   0.94233631    -13601.612      0.23033189    -13601.382      9876.059     
     62800   0.99177916    -13601.71       0.24241703    -13601.468      9876.4035    
     62900   1.1159205     -13601.805      0.27276046    -13601.533      9876.8803    
     63000   1.2925373     -13601.893      0.31593028    -13601.577      9877.2116    
     63100   1.4932181     -13601.964      0.36498196    -13601.599      9877.605     
     63200   1.6732186     -13602.003      0.40897884    -13601.594      9878.3113    
     63300   1.7964094     -13601.999      0.43908993    -13601.56       9879.2499    
     63400   1.8823294     -13601.945      0.46009104    -13601.485      9880.057     
     63500   2.1194263     -13601.854      0.51804379    -13601.336      9880.8302    
     63600   3.2053652     -13601.747      0.78347594    -13600.964      9881.9206    
     63700   7.4307207     -13601.643      1.8162645     -13599.827      9883.7097    
     63800   15.747765     -13601.588      3.84917       -13597.739      9885.6842    
     63900   19.063759     -13601.65       4.6596864     -13596.99       9885.9701    
     64000   14.526123     -13601.74       3.5505682     -13598.189      9885.462     
     64100   8.9038837     -13601.743      2.1763445     -13599.567      9885.4055    
     64200   5.321715      -13601.675      1.3007678     -13600.374      9885.3604    
     64300   3.3880414     -13601.598      0.82812684    -13600.77       9885.0153    
     64400   2.4501994     -13601.567      0.59889348    -13600.968      9884.2142    
     64500   2.1056205     -13601.594      0.51466929    -13601.079      9882.8952    
     64600   2.0537175     -13601.649      0.50198282    -13601.147      9881.1267    
     64700   2.0850674     -13601.696      0.50964556    -13601.186      9879.4833    
     64800   2.086234      -13601.709      0.50993071    -13601.199      9878.4477    
     64900   2.0672821     -13601.69       0.50529837    -13601.184      9877.9211    
     65000   2.0649132     -13601.643      0.50471934    -13601.139      9877.3708    
     65100   2.1380478     -13601.576      0.52259537    -13601.054      9876.8702    
     65200   2.370781      -13601.493      0.57948152    -13600.914      9876.8461    
     65300   2.9076405     -13601.4        0.71070417    -13600.689      9877.1214    
     65400   3.9384843     -13601.298      0.96266964    -13600.336      9877.3074    
     65500   5.5969049     -13601.194      1.3680314     -13599.826      9877.4996    
     65600   7.635115      -13601.101      1.8662239     -13599.234      9878.1401    
     65700   9.1981503     -13601.04       2.248271      -13598.791      9878.8865    
     65800   9.341221      -13601.021      2.2832412     -13598.738      9878.9227    
     65900   7.954939      -13601.036      1.9443973     -13599.091      9878.4491    
     66000   5.8687729     -13601.069      1.4344832     -13599.634      9878.2436    
     66100   4.0096721     -13601.11       0.9800698     -13600.13       9878.2534    
     66200   2.7786567     -13601.156      0.67917713    -13600.477      9878.0645    
     66300   2.1269423     -13601.206      0.51988089    -13600.686      9877.8936    
     66400   1.8799642     -13601.26       0.45951293    -13600.8        9878.1164    
     66500   1.9061437     -13601.319      0.46591189    -13600.853      9878.5336    
     66600   2.1131259     -13601.381      0.5165038     -13600.865      9878.8302    
     66700   2.4281114     -13601.444      0.59349458    -13600.85       9879.0871    
     66800   2.7992386     -13601.504      0.68420789    -13600.819      9879.6694    
     66900   3.1983702     -13601.559      0.78176619    -13600.777      9880.4553    
     67000   3.6061782     -13601.608      0.88144525    -13600.727      9881.0505    
     67100   3.9926078     -13601.652      0.97589886    -13600.676      9881.5225    
     67200   4.3111407     -13601.687      1.0537567     -13600.633      9882.2077    
     67300   4.5128106     -13601.714      1.1030502     -13600.611      9882.8857    
     67400   4.5768227     -13601.739      1.1186964     -13600.62       9882.9698    
     67500   4.5073791     -13601.77       1.1017226     -13600.668      9882.5895    
     67600   4.2889785     -13601.807      1.0483397     -13600.759      9882.1869    
     67700   3.9017529     -13601.846      0.9536915     -13600.892      9881.7447    
     67800   3.34622       -13601.879      0.81790458    -13601.061      9881.0323    
     67900   2.6674685     -13601.898      0.65199978    -13601.246      9880.1869    
     68000   1.9697537     -13601.902      0.48145985    -13601.42       9879.6847    
     68100   1.3727009     -13601.895      0.33552437    -13601.559      9879.412     
     68200   0.93835112    -13601.885      0.22935781    -13601.655      9879.078     
     68300   0.66076715    -13601.877      0.16150895    -13601.715      9878.7888    
     68400   0.50396362    -13601.874      0.12318202    -13601.751      9878.7652    
     68500   0.43318874    -13601.877      0.10588277    -13601.771      9878.8984    
     68600   0.4268973     -13601.885      0.10434498    -13601.78       9878.9581    
     68700   0.47965909    -13601.897      0.11724136    -13601.78       9879.0164    
     68800   0.61214674    -13601.911      0.14962484    -13601.761      9879.2995    
     68900   0.90526334    -13601.923      0.22127028    -13601.702      9879.7866    
     69000   1.5838503     -13601.93       0.38713487    -13601.543      9880.3225    
     69100   3.0415194     -13601.918      0.7434277     -13601.175      9881.0684    
     69200   5.2921622     -13601.871      1.2935443     -13600.578      9882.3927    
     69300   7.3856343     -13601.793      1.8052442     -13599.988      9883.8463    
     69400   8.4352249     -13601.737      2.0617919     -13599.675      9884.5049    
     69500   8.3830299     -13601.765      2.049034      -13599.716      9884.0882    
     69600   7.5167175     -13601.872      1.8372844     -13600.034      9883.2048    
     69700   6.1740856     -13601.994      1.5091097     -13600.485      9882.1783    
     69800   4.7447338     -13602.078      1.1597383     -13600.918      9880.8861    
     69900   3.5260207     -13602.11       0.86185264    -13601.248      9879.7261    
     70000   2.6298992     -13602.104      0.64281686    -13601.461      9879.0438    
     70100   2.0298967     -13602.081      0.49616039    -13601.585      9878.6696    
     70200   1.6659714     -13602.056      0.40720743    -13601.649      9878.2715    
     70300   1.4945147     -13602.039      0.36529889    -13601.673      9877.9271    
     70400   1.5008544     -13602.036      0.36684847    -13601.669      9877.8864    
     70500   1.7020536     -13602.052      0.41602688    -13601.636      9878.0607    
     70600   2.1612082     -13602.086      0.5282564     -13601.558      9878.1851    
     70700   3.033583      -13602.139      0.74148785    -13601.398      9878.3671    
     70800   4.7015704     -13602.206      1.149188      -13601.057      9879.0056    
     70900   8.0339906     -13602.279      1.9637196     -13600.315      9880.2258    
     71000   13.960281     -13602.344      3.4122616     -13598.931      9881.8581    
     71100   19.515126     -13602.387      4.7700123     -13597.617      9883.471     
     71200   16.706051     -13602.419      4.0834003     -13598.336      9884.0096    
     71300   7.9561557     -13602.45       1.9446947     -13600.506      9883.2932    
     71400   3.2488666     -13602.478      0.79410885    -13601.684      9882.4858    
     71500   1.9416554     -13602.507      0.47459188    -13602.032      9881.9111    
     71600   1.6008288     -13602.538      0.39128486    -13602.146      9881.5235    
     71700   1.5348787     -13602.567      0.3751649     -13602.192      9881.1658    
     71800   1.580264      -13602.59       0.38625827    -13602.203      9880.625     
     71900   1.6983317     -13602.602      0.41511713    -13602.187      9880.0217    
     72000   1.89964       -13602.604      0.46432221    -13602.139      9879.6211    
     72100   2.2302591     -13602.596      0.54513425    -13602.051      9879.3876    
     72200   2.7750269     -13602.584      0.67828991    -13601.906      9879.1095    
     72300   3.6481965     -13602.576      0.89171563    -13601.684      9878.876     
     72400   4.923174      -13602.576      1.2033538     -13601.372      9878.9598    
     72500   6.4997698     -13602.589      1.5887155     -13601          9879.3143    
     72600   7.911271      -13602.614      1.9337237     -13600.68       9879.5352    
     72700   8.3969838     -13602.637      2.0524447     -13600.585      9879.6137    
     72800   7.4796892     -13602.637      1.8282337     -13600.809      9879.8262    
     72900   5.5479154     -13602.612      1.3560571     -13601.256      9880.0413    
     73000   3.5654188     -13602.587      0.87148257    -13601.715      9879.9434    
     73100   2.20256       -13602.589      0.53836387    -13602.051      9879.6561    
     73200   1.4999354     -13602.624      0.36662385    -13602.258      9879.5297    
     73300   1.2334349     -13602.683      0.30148408    -13602.381      9879.5073    
     73400   1.2205654     -13602.757      0.29833844    -13602.459      9879.3163    
     73500   1.3580829     -13602.837      0.33195134    -13602.505      9879.1298    
     73600   1.606465      -13602.918      0.39266249    -13602.526      9879.1724    
     73700   1.9551341     -13602.997      0.47788645    -13602.519      9879.4313    
     73800   2.4034458     -13603.07       0.58746565    -13602.483      9879.7119    
     73900   2.956787      -13603.141      0.72271688    -13602.418      9880.0229    
     74000   3.6053216     -13603.213      0.88123587    -13602.332      9880.5273    
     74100   4.2839607     -13603.291      1.0471132     -13602.244      9881.0529    
     74200   4.8522737     -13603.371      1.1860239     -13602.185      9881.2961    
     74300   5.1582486     -13603.441      1.2608123     -13602.18       9881.2642    
     74400   5.184783      -13603.494      1.267298      -13602.226      9881.119     
     74500   5.0324146     -13603.529      1.2300551     -13602.298      9880.9612    
     74600   4.7571296     -13603.543      1.1627682     -13602.38       9880.6509    
     74700   4.3631782     -13603.532      1.066476      -13602.466      9880.3143    
     74800   3.8622316     -13603.492      0.94403145    -13602.548      9880.1632    
     74900   3.3015963     -13603.424      0.80699737    -13602.617      9880.1798    
     75000   2.7628796     -13603.34       0.67532078    -13602.665      9880.1021    
     75100   2.327436      -13603.256      0.56888687    -13602.687      9879.9489    
     75200   2.0496261     -13603.183      0.50098277    -13602.682      9879.8549    
     75300   1.9561692     -13603.127      0.47813944    -13602.649      9879.748     
     75400   2.0713129     -13603.084      0.50628361    -13602.578      9879.4641    
     75500   2.4568828     -13603.047      0.60052709    -13602.446      9879.0934    
     75600   3.260792      -13603.006      0.79702373    -13602.209      9878.9029    
     75700   4.7240111     -13602.955      1.1546731     -13601.8        9878.9599    
     75800   6.952187      -13602.882      1.6992982     -13601.183      9879.0271    
     75900   9.3229429     -13602.782      2.2787736     -13600.503      9879.1155    
     76000   10.389908     -13602.657      2.5395681     -13600.118      9879.3255    
     76100   9.2289655     -13602.523      2.255803      -13600.268      9879.4153    
     76200   6.569633      -13602.401      1.6057919     -13600.795      9879.1375    
     76300   3.8991901     -13602.305      0.95306509    -13601.352      9878.7739    
     76400   2.0896073     -13602.242      0.51075524    -13601.731      9878.748     
     76500   1.1420102     -13602.205      0.27913748    -13601.926      9878.9394    
     76600   0.72471275    -13602.19       0.17713895    -13602.013      9879.071     
     76700   0.58339875    -13602.191      0.14259807    -13602.049      9879.1833    
     76800   0.60277242    -13602.207      0.14733351    -13602.06       9879.4306    
     76900   0.74758774    -13602.237      0.1827302     -13602.054      9879.7575    
     77000   1.0106842     -13602.281      0.24703792    -13602.034      9879.9943    
     77100   1.3811256     -13602.333      0.3375836     -13601.996      9880.1769    
     77200   1.8267929     -13602.385      0.44651645    -13601.938      9880.5185    
     77300   2.278217      -13602.416      0.55685644    -13601.859      9881.0575    
     77400   2.6536811     -13602.406      0.64862978    -13601.757      9881.5995    
     77500   2.9843896     -13602.365      0.72946369    -13601.635      9882.0734    
     77600   3.4560896     -13602.336      0.84475961    -13601.492      9882.6535    
     77700   4.359581      -13602.386      1.0655968     -13601.321      9883.0582    
     77800   5.7586996     -13602.538      1.4075783     -13601.131      9882.9214    
     77900   7.1455274     -13602.739      1.7465557     -13600.993      9882.2669    
     78000   7.620342      -13602.903      1.862613      -13601.041      9881.5051    
     78100   6.7263697     -13602.996      1.6441025     -13601.352      9880.774     
     78200   4.8602948     -13603.022      1.1879845     -13601.834      9880.0082    
     78300   2.956498      -13603.014      0.72264624    -13602.292      9879.3567    
     78400   1.6572743     -13603.001      0.40508163    -13602.596      9879.0531    
     78500   0.98959714    -13602.996      0.24188369    -13602.754      9878.951     
     78600   0.71579246    -13603.004      0.17495859    -13602.829      9878.8578    
     78700   0.65969442    -13603.026      0.16124675    -13602.864      9878.8022    
     78800   0.74693353    -13603.06       0.18257029    -13602.877      9878.8917    
     78900   0.95935597    -13603.105      0.23449195    -13602.871      9879.0858    
     79000   1.2978552     -13603.16       0.3172301     -13602.843      9879.2767    
     79100   1.7517072     -13603.218      0.42816352    -13602.79       9879.5091    
     79200   2.2713906     -13603.27       0.55518789    -13602.715      9879.9173    
     79300   2.7678063     -13603.302      0.676525      -13602.625      9880.4436    
     79400   3.1685666     -13603.308      0.77448141    -13602.534      9880.86      
     79500   3.4694873     -13603.297      0.84803438    -13602.449      9881.1846    
     79600   3.7322001     -13603.286      0.91224832    -13602.374      9881.4284    
     79700   4.0268162     -13603.296      0.9842603     -13602.312      9881.5203    
     79800   4.3574241     -13603.332      1.0650696     -13602.267      9881.2965    
     79900   4.6330028     -13603.38       1.1324283     -13602.248      9880.7841    
     80000   4.7028449     -13603.415      1.1494996     -13602.266      9880.2206    
     80100   4.4639042     -13603.415      1.0910961     -13602.323      9879.6306    
     80200   3.9615887     -13603.379      0.96831696    -13602.411      9879.0753    
     80300   3.3335189     -13603.327      0.8148001     -13602.513      9878.6127    
     80400   2.6995785     -13603.278      0.65984831    -13602.618      9878.4025    
     80500   2.1189872     -13603.243      0.51793647    -13602.725      9878.365     
     80600   1.6121411     -13603.228      0.39404988    -13602.834      9878.3549    
     80700   1.2059877     -13603.233      0.29477527    -13602.938      9878.4049    
     80800   0.92971069    -13603.255      0.22724586    -13603.028      9878.6048    
     80900   0.77931301    -13603.288      0.19048469    -13603.097      9878.8884    
     81000   0.72382728    -13603.326      0.17692251    -13603.149      9879.1499    
     81100   0.72933866    -13603.365      0.17826964    -13603.187      9879.431     
     81200   0.76903569    -13603.399      0.18797264    -13603.211      9879.7896    
     81300   0.82485382    -13603.421      0.20161607    -13603.219      9880.2279    
     81400   0.88326544    -13603.424      0.21589341    -13603.208      9880.6872    
     81500   0.95491181    -13603.403      0.23340568    -13603.17       9881.1758    
     81600   1.0979394     -13603.36       0.2683654     -13603.092      9881.7499    
     81700   1.4610119     -13603.305      0.35710993    -13602.948      9882.3381    
     81800   2.3136731     -13603.256      0.56552284    -13602.691      9882.7689    
     81900   3.8581945     -13603.228      0.94304469    -13602.285      9882.9298    
     82000   5.730545      -13603.209      1.4006966     -13601.809      9882.7448    
     82100   7.0406551     -13603.169      1.7209222     -13601.448      9882.2141    
     82200   7.2288629     -13603.091      1.7669251     -13601.325      9881.388     
     82300   6.4194028     -13602.979      1.5690717     -13601.41       9880.3115    
     82400   5.1107769     -13602.841      1.2492089     -13601.592      9879.3744    
     82500   3.786527      -13602.694      0.92552726    -13601.769      9878.6814    
     82600   2.7084536     -13602.556      0.66201764    -13601.894      9878.0697    
     82700   1.9348015     -13602.436      0.4729166     -13601.963      9877.6084    
     82800   1.4371177     -13602.342      0.35126953    -13601.991      9877.3961    
     82900   1.1727972     -13602.276      0.28666262    -13601.989      9877.3564    
     83000   1.1277432     -13602.236      0.27565024    -13601.961      9877.344     
     83100   1.3639545     -13602.221      0.33338652    -13601.888      9877.4142    
[...]
    181100   5.9916224     -13601.498      1.4645108     -13600.034      9876.0177    
    181200   4.7416987     -13601.375      1.1589965     -13600.216      9875.7381    
    181300   3.7591807     -13601.325      0.91884309    -13600.406      9875.66      
    181400   3.1377046     -13601.34       0.76693791    -13600.573      9875.78      
    181500   2.8563837     -13601.417      0.69817566    -13600.718      9875.8217    
    181600   2.8589112     -13601.551      0.69879344    -13600.852      9875.7792    
    181700   3.0787718     -13601.743      0.75253319    -13600.99       9875.8913    
    181800   3.4279137     -13601.989      0.83787269    -13601.151      9876.167     
    181900   3.7743788     -13602.283      0.92255792    -13601.36       9876.4043    
    182000   3.9430487     -13602.607      0.9637853     -13601.644      9876.6192    
    182100   3.7866972     -13602.933      0.92556886    -13602.008      9877.0191    
    182200   3.3150065     -13603.224      0.81027518    -13602.414      9877.6263    
    182300   2.7135624     -13603.448      0.66326634    -13602.785      9878.3155    
    182400   2.1621922     -13603.59       0.5284969     -13603.062      9879.101     
    182500   1.7018736     -13603.65       0.41598289    -13603.234      9880.0828    
    182600   1.2808046     -13603.634      0.31306248    -13603.321      9881.1635    
    182700   0.85902765    -13603.561      0.20996906    -13603.351      9882.1681    
    182800   0.46347984    -13603.466      0.11328672    -13603.353      9882.9334    
    182900   0.21058045    -13603.398      0.051471427   -13603.346      9883.3821    
    183000   0.25835294    -13603.401      0.063148284   -13603.338      9883.3863    
    183100   0.68926972    -13603.481      0.16847573    -13603.313      9882.8074    
    183200   1.3805811     -13603.589      0.33745049    -13603.252      9881.7462    
    183300   2.0224176     -13603.649      0.49433229    -13603.154      9880.5602    
    183400   2.3425855     -13603.615      0.57258979    -13603.042      9879.4582    
    183500   2.2807393     -13603.492      0.55747296    -13602.934      9878.4448    
    183600   1.9551709     -13603.316      0.47789542    -13602.838      9877.6106    
    183700   1.5311262     -13603.126      0.37424771    -13602.752      9877.0536    
    183800   1.1335477     -13602.953      0.27706902    -13602.676      9876.7598    
    183900   0.83717551    -13602.813      0.20462782    -13602.608      9876.5321    
    184000   0.70304911    -13602.718      0.17184378    -13602.546      9876.3275    
    184100   0.81930901    -13602.679      0.20026077    -13602.479      9876.3207    
    184200   1.3230647     -13602.706      0.32339196    -13602.383      9876.5746    
    184300   2.3506087     -13602.805      0.57455087    -13602.23       9876.9465    
    184400   3.8759876     -13602.966      0.94739378    -13602.018      9877.4962    
    184500   5.4962449     -13603.141      1.3434275     -13601.798      9878.5621    
    184600   6.4024876     -13603.232      1.5649371     -13601.667      9880.2598    
    184700   5.9073645     -13603.124      1.443916      -13601.68       9882.0768    
    184800   4.3151727     -13602.86       1.0547422     -13601.806      9881.6847    
    184900   3.1879057     -13602.668      0.7792084     -13601.889      9881.9765    
    185000   3.2734844     -13602.749      0.80012608    -13601.948      9882.889     
    185100   3.5524778     -13602.843      0.86831944    -13601.975      9884.0314    
    185200   3.4932078     -13602.916      0.85383229    -13602.063      9882.0269    
    185300   3.3782221     -13602.923      0.82572676    -13602.098      9882.1079    
    185400   3.1693785     -13602.945      0.77467985    -13602.171      9881.0518    
    185500   2.6891182     -13602.913      0.65729155    -13602.255      9879.7677    
    185600   1.9814021     -13602.827      0.48430703    -13602.343      9878.6024    
    185700   1.2683125     -13602.723      0.31000909    -13602.413      9877.8703    
    185800   0.73839678    -13602.635      0.18048369    -13602.455      9877.5263    
    185900   0.45401951    -13602.583      0.11097436    -13602.472      9877.2416    
    186000   0.40861397    -13602.575      0.099876051   -13602.475      9876.9965    
    186100   0.62021054    -13602.617      0.15159585    -13602.465      9877.0463    
    186200   1.1995797     -13602.712      0.29320897    -13602.419      9877.39      
    186300   2.4118547     -13602.865      0.58952101    -13602.276      9877.8592    
    186400   4.6097961     -13603.066      1.126756      -13601.939      9878.6694    
    186500   7.5664695     -13603.241      1.8494451     -13601.392      9880.3807    
    186600   9.2633475     -13603.164      2.2642069     -13600.899      9883.2364    
    186700   6.8796855     -13602.491      1.6815769     -13600.809      9883.527     
    186800   2.9981829     -13601.6        0.73283514    -13600.867      9882.7702    
    186900   3.1717525     -13601.674      0.77526011    -13600.899      9883.2521    
    187000   6.2183004     -13602.474      1.5199169     -13600.954      9884.1026    
    187100   7.0829769     -13602.909      1.7312667     -13601.178      9883.3317    
    187200   5.3780476     -13602.997      1.3145369     -13601.682      9881.1779    
    187300   3.1047736     -13602.948      0.7588887     -13602.189      9879.7119    
    187400   1.5308681     -13602.872      0.37418462    -13602.498      9878.8324    
    187500   0.73444389    -13602.808      0.17951749    -13602.629      9878.2158    
    187600   0.38387473    -13602.768      0.093829128   -13602.674      9877.6526    
    187700   0.26715593    -13602.753      0.065299969   -13602.688      9877.3859    
    187800   0.32169143    -13602.769      0.078629887   -13602.69       9877.3632    
    187900   0.56124651    -13602.82       0.13718348    -13602.683      9877.379     
    188000   1.0429051     -13602.907      0.25491357    -13602.652      9877.4534    
    188100   1.8239818     -13603.022      0.44582936    -13602.576      9877.8983    
    188200   2.8295496     -13603.129      0.69161669    -13602.438      9878.8581    
    188300   3.6703528     -13603.155      0.89713122    -13602.258      9880.2811    
    188400   3.7397017     -13603.011      0.91408192    -13602.097      9881.9771    
    188500   2.9984857     -13602.761      0.73290914    -13602.028      9882.7096    
    188600   2.2630153     -13602.517      0.55314073    -13601.964      9883.2812    
    188700   2.9679487     -13602.628      0.72544508    -13601.902      9883.4478    
    188800   5.0812271     -13603.035      1.2419862     -13601.793      9883.5458    
    188900   6.7615402     -13603.427      1.6526991     -13601.774      9881.6811    
    189000   6.7830705     -13603.566      1.6579617     -13601.908      9880.4369    
    189100   5.6149346     -13603.525      1.3724384     -13602.152      9879.5989    
    189200   4.2020205     -13603.422      1.0270849     -13602.394      9879.0017    
    189300   3.0401507     -13603.316      0.74309316    -13602.573      9878.8915    
    189400   2.2157856     -13603.224      0.54159656    -13602.682      9879.0718    
    189500   1.674326      -13603.147      0.40924952    -13602.738      9879.0626    
    189600   1.3548427     -13603.089      0.33115935    -13602.758      9878.8748    
    189700   1.2330368     -13603.051      0.30138677    -13602.75       9878.8865    
    189800   1.3396368     -13603.039      0.32744263    -13602.711      9878.9966    
    189900   1.824178      -13603.056      0.44587731    -13602.61       9878.8463    
    190000   3.1969586     -13603.111      0.78142117    -13602.33       9878.4747    
    190100   6.7961283     -13603.209      1.6611533     -13601.548      9878.5077    
    190200   13.141521     -13603.282      3.212135      -13600.07       9879.5776    
    190300   15.85685      -13602.984      3.8758331     -13599.108      9882.0884    
    190400   10.072216     -13602.005      2.4619157     -13599.543      9882.2931    
    190500   4.4635557     -13601.161      1.091011      -13600.07       9880.473     
    190600   3.8117738     -13601.272      0.93169825    -13600.341      9880.3899    
    190700   5.9069483     -13602.058      1.4438142     -13600.614      9881.4197    
    190800   6.9652534     -13602.665      1.702492      -13600.963      9880.8596    
    190900   5.8057043     -13602.777      1.4190675     -13601.358      9878.5817    
    191000   4.1393511     -13602.643      1.0117668     -13601.631      9877.5417    
    191100   2.859484      -13602.47       0.69893345    -13601.771      9876.8558    
    191200   2.098333      -13602.341      0.51288804    -13601.828      9876.4136    
    191300   1.7811994     -13602.277      0.43537221    -13601.841      9876.5102    
    191400   1.8388407     -13602.275      0.44946125    -13601.826      9876.9247    
    191500   2.2390529     -13602.328      0.54728369    -13601.78       9877.2081    
    191600   2.9583424     -13602.418      0.72309704    -13601.695      9877.6053    
    191700   3.9273284     -13602.519      0.95994283    -13601.559      9878.6668    
    191800   5.0056145     -13602.605      1.2235045     -13601.381      9880.1099    
    191900   5.9881712     -13602.663      1.4636673     -13601.199      9881.3554    
    192000   6.6244783     -13602.696      1.6191976     -13601.077      9882.3527    
    192100   6.7870023     -13602.753      1.6589227     -13601.094      9882.9803    
    192200   6.3198104     -13602.881      1.5447287     -13601.336      9882.8257    
    192300   4.9037608     -13603.033      1.1986087     -13601.834      9881.9639    
    192400   3.1017182     -13603.158      0.75814189    -13602.399      9881.3529    
    192500   1.8689235     -13603.246      0.45681428    -13602.789      9881.4107    
    192600   1.2845664     -13603.306      0.31398197    -13602.992      9881.5107    
    192700   1.0170294     -13603.34       0.24858886    -13603.091      9881.2946    
    192800   0.87365486    -13603.351      0.21354433    -13603.137      9880.943     
    192900   0.79720418    -13603.348      0.19485777    -13603.153      9880.6501    
    193000   0.77135528    -13603.338      0.18853961    -13603.149      9880.3049    
    193100   0.79072981    -13603.319      0.19327526    -13603.126      9879.6894    
    193200   0.85188224    -13603.29       0.20822253    -13603.082      9878.9617    
    193300   0.96667154    -13603.245      0.23628007    -13603.009      9878.4475    
    193400   1.1721437     -13603.183      0.28650289    -13602.897      9878.0913    
    193500   1.5166758     -13603.108      0.37071564    -13602.737      9877.5194    
    193600   2.0079769     -13603.028      0.49080261    -13602.537      9876.9047    
    193700   2.5940325     -13602.962      0.63405009    -13602.328      9876.7288    
    193800   3.238972      -13602.934      0.79169034    -13602.142      9876.8631    
    193900   3.9720309     -13602.962      0.97086932    -13601.991      9876.8006    
    194000   4.7923322     -13603.049      1.1713726     -13601.878      9876.8226    
    194100   5.5406887     -13603.173      1.3542907     -13601.819      9877.5643    
    194200   5.8568991     -13603.278      1.4315809     -13601.846      9878.8338    
    194300   5.4004984     -13603.29       1.3200245     -13601.97       9880.0233    
    194400   4.2476921     -13603.182      1.0382482     -13602.143      9881.2119    
    194500   3.0253973     -13603.069      0.73948705    -13602.329      9881.3061    
    194600   2.3999323     -13603.023      0.58660687    -13602.437      9881.6308    
    194700   2.5633348     -13603.118      0.62654676    -13602.491      9882.5237    
    194800   2.7227795     -13603.243      0.66551927    -13602.577      9881.5031    
    194900   2.5352268     -13603.284      0.61967642    -13602.665      9880.9477    
    195000   2.0736801     -13603.252      0.5068622     -13602.745      9880.6943    
    195100   1.5712558     -13603.195      0.38405644    -13602.811      9880.1429    
    195200   1.1695561     -13603.142      0.28587041    -13602.856      9879.5395    
    195300   0.90705163    -13603.104      0.22170739    -13602.882      9879.3246    
    195400   0.77412934    -13603.079      0.18921767    -13602.89       9879.2136    
    195500   0.76600886    -13603.065      0.18723281    -13602.878      9878.7813    
    195600   0.91223632    -13603.06       0.22297466    -13602.838      9878.1908    
    195700   1.3144865     -13603.067      0.32129523    -13602.746      9878.051     
    195800   2.2059709     -13603.089      0.53919759    -13602.55       9878.2158    
    195900   3.8893696     -13603.129      0.9506647     -13602.178      9878.0637    
    196000   6.3218442     -13603.176      1.5452258     -13601.631      9877.978     
    196100   8.5437469     -13603.189      2.0883175     -13601.101      9878.8981    
    196200   9.0031862     -13603.084      2.2006166     -13600.884      9880.5092    
    196300   7.2639897     -13602.813      1.775511      -13601.037      9881.575     
    196400   4.8268805     -13602.531      1.1798171     -13601.351      9880.5657    
    196500   3.4628851     -13602.436      0.84642061    -13601.589      9880.8758    
    196600   3.1686295     -13602.534      0.77449679    -13601.759      9882.2008    
    196700   3.0013307     -13602.676      0.73360453    -13601.943      9881.1985    
    196800   2.6091644     -13602.745      0.63774871    -13602.108      9880.1473    
    196900   2.0426621     -13602.739      0.4992806     -13602.24       9879.7953    
    197000   1.5033457     -13602.702      0.36745741    -13602.335      9879.6675    
    197100   1.091248      -13602.666      0.26672985    -13602.4        9879.148     
    197200   0.81354197    -13602.645      0.19885115    -13602.446      9878.5828    
    197300   0.65027661    -13602.643      0.15894479    -13602.484      9878.4739    
    197400   0.58306852    -13602.659      0.14251735    -13602.517      9878.4816    
    197500   0.60617346    -13602.696      0.14816481    -13602.548      9878.1984    
    197600   0.72156806    -13602.753      0.1763703     -13602.577      9877.9372    
    197700   0.94100063    -13602.83       0.23000542    -13602.6        9878.1124    
    197800   1.2834203     -13602.924      0.31370183    -13602.611      9878.4722    
    197900   1.7734321     -13603.029      0.43347367    -13602.596      9878.6929    
    198000   2.4160761     -13603.127      0.59055285    -13602.536      9879.0864    
    198100   3.1548966     -13603.182      0.77114009    -13602.411      9880.1308    
    198200   3.8426742     -13603.149      0.9392511     -13602.21       9881.6659    
    198300   4.3644657     -13603.013      1.0667907     -13601.946      9882.9845    
    198400   5.0467742     -13602.905      1.233565      -13601.671      9882.5151    
    198500   6.6141118     -13602.907      1.6166637     -13601.29       9884.0983    
    198600   8.627014      -13603.086      2.1086702     -13600.978      9883.737     
    198700   9.6915425     -13603.315      2.3688691     -13600.946      9882.4504    
    198800   8.5021398     -13603.478      2.0781476     -13601.4        9880.7842    
    198900   5.6544319     -13603.518      1.3820926     -13602.136      9879.8318    
    199000   3.1040965     -13603.483      0.7587232     -13602.725      9879.3397    
    199100   1.6631505     -13603.433      0.40651793    -13603.026      9878.8527    
    199200   0.99166476    -13603.391      0.24238907    -13603.148      9878.6076    
    199300   0.69593825    -13603.362      0.1701057     -13603.192      9878.7669    
    199400   0.59251243    -13603.348      0.14482569    -13603.204      9879.0032    
    199500   0.6243014     -13603.351      0.15259576    -13603.198      9879.0011    
    199600   0.7926011     -13603.371      0.19373265    -13603.177      9878.9917    
    199700   1.1274954     -13603.408      0.27558967    -13603.133      9879.3002    
    199800   1.6507173     -13603.456      0.40347892    -13603.053      9879.7317    
    199900   2.3118583     -13603.493      0.56507925    -13602.928      9879.9827    
    200000   2.8928365     -13603.477      0.70708568    -13602.77       9880.4975    
    200005   2.9135994     -13603.474      0.71216069    -13602.761      9880.549     
Loop time of 213.916 on 1 procs for 200000 steps with 83 atoms

Performance: 20.195 ns/day, 1.188 hours/ns, 934.945 timesteps/s, 77.600 katom-step/s
97.9% CPU use with 1 MPI tasks x 1 OpenMP threads

MPI task timing breakdown:
Section |  min time  |  avg time  |  max time  |%varavg| %total
---------------------------------------------------------------
Pair    | 172.57     | 172.57     | 172.57     |   0.0 | 80.67
Neigh   | 0.0079783  | 0.0079783  | 0.0079783  |   0.0 |  0.00
Comm    | 0.091587   | 0.091587   | 0.091587   |   0.0 |  0.04
Output  | 1.4618     | 1.4618     | 1.4618     |   0.0 |  0.68
Modify  | 39.604     | 39.604     | 39.604     |   0.0 | 18.51
Other   |            | 0.1781     |            |       |  0.08

Nlocal:             83 ave          83 max          83 min
Histogram: 1 0 0 0 0 0 0 0 0 0
Nghost:              3 ave           3 max           3 min
Histogram: 1 0 0 0 0 0 0 0 0 0
Neighs:           3320 ave        3320 max        3320 min
Histogram: 1 0 0 0 0 0 0 0 0 0

Total # of neighbors = 3320
Ave neighs/atom = 40
Neighbor list builds = 212
Dangerous builds = 0

# Final energy minimization for most stable adsorption structure
unfix nvt
minimize 1.0e-6 1.0e-8 5000 10000
Per MPI rank memory allocation (min/avg/max) = 14.71 | 14.71 | 14.71 Mbytes
   Step          Temp          PotEng         KinEng         TotEng         Press     
    200005   2.9135994     -13603.474      0.71216069    -13602.761      9880.5494    
    200006   2.9135994     -13603.474      0.71216069    -13602.762      9881.0815    
Loop time of 0.0040742 on 1 procs for 1 steps with 83 atoms

90.7% CPU use with 1 MPI tasks x 1 OpenMP threads

Minimization stats:
  Stopping criterion = energy tolerance
  Energy initial, next-to-last, final = 
     -13603.4736413153  -13603.4736413153  -13603.4742884664
  Force two-norm initial, final = 2.0127828 0.90522402
  Force max component initial, final = 1.243075 0.69955348
  Final line search alpha, max atom move = 0.080445669 0.056276048
  Iterations, force evaluations = 1 2

MPI task timing breakdown:
Section |  min time  |  avg time  |  max time  |%varavg| %total
---------------------------------------------------------------
Pair    | 0.0026552  | 0.0026552  | 0.0026552  |   0.0 | 65.17
Neigh   | 0          | 0          | 0          |   0.0 |  0.00
Comm    | 1.3e-06    | 1.3e-06    | 1.3e-06    |   0.0 |  0.03
Output  | 0          | 0          | 0          |   0.0 |  0.00
Modify  | 0.0009411  | 0.0009411  | 0.0009411  |   0.0 | 23.10
Other   |            | 0.0004766  |            |       | 11.70

Nlocal:             83 ave          83 max          83 min
Histogram: 1 0 0 0 0 0 0 0 0 0
Nghost:              3 ave           3 max           3 min
Histogram: 1 0 0 0 0 0 0 0 0 0
Neighs:           3321 ave        3321 max        3321 min
Histogram: 1 0 0 0 0 0 0 0 0 0

Total # of neighbors = 3321
Ave neighs/atom = 40.012048
Neighbor list builds = 0
Dangerous builds = 0
write_data final_structure_${i}.data  # Save final structure for DFT
write_data final_structure_20.data  
System init for write_data ...

# Dump final structure in XYZ format for DFT input
write_dump all xyz final_structure_${i}.xyz
write_dump all xyz final_structure_20.xyz

# Move back to parent directory
shell cd ..

# Increment loop
next i
jump SELF loop_start
Total wall time: 1:15:54
