
                                 *****************
                                 * O   R   C   A *
                                 *****************

                                            #,                                       
                                            ###                                      
                                            ####                                     
                                            #####                                    
                                            ######                                   
                                           ########,                                 
                                     ,,################,,,,,                         
                               ,,#################################,,                 
                          ,,##########################################,,             
                       ,#########################################, ''#####,          
                    ,#############################################,,   '####,        
                  ,##################################################,,,,####,       
                ,###########''''           ''''###############################       
              ,#####''   ,,,,##########,,,,          '''####'''          '####       
            ,##' ,,,,###########################,,,                        '##       
           ' ,,###''''                  '''############,,,                           
         ,,##''                                '''############,,,,        ,,,,,,###''
      ,#''                                            '''#######################'''  
     '                                                          ''''####''''         
             ,#######,   #######,   ,#######,      ##                                
            ,#'     '#,  ##    ##  ,#'     '#,    #''#        ,####,   ,####,        
            ##       ##  ##   ,#'  ##            #'  '#       #'       #'  '#        
            ##       ##  #######   ##           ,######,      #####,   #    #        
            '#,     ,#'  ##    ##  '#,     ,#' ,#      #,     #,   #   #,  ,#        
             '#######'   ##     ##  '#######'  #'      '#     '####' # '####'        



                #########################################################
                #                        -***-                          #
                #          Department of theory and spectroscopy        #
                #                                                       #
                #                      Frank Neese                      #
                #                                                       #
                #     Directorship, Architecture, Infrastructure        #
                #                    SHARK, DRIVERS                     #
                #        Core code/Algorithms in most modules           #
                #                                                       #
                #        Max Planck Institute fuer Kohlenforschung      #
                #                Kaiser Wilhelm Platz 1                 #
                #                 D-45470 Muelheim/Ruhr                 #
                #                      Germany                          #
                #                                                       #
                #                  All rights reserved                  #
                #                        -***-                          #
                #########################################################


                         Program Version 6.0.1  -  RELEASE   -


 With contributions from (in alphabetic order):
[Max-Planck-Institut fuer Kohlenforschung]                               
  Daniel Aravena         : Magnetic Suceptibility                        
  Michael Atanasov       : Ab Initio Ligand Field Theory (pilot matlab implementation)
  Alexander A. Auer      : GIAO ZORA, VPT2 properties, NMR spectrum      
  Ute Becker             : All parallelization in ORCA, NUMFREQ, NUMCALC 
  Giovanni Bistoni       : ED, misc. LED, open-shell LED, HFLD           
  Martin Brehm           : Molecular dynamics                            
  Dmytro Bykov           : pre 5.0 version of the SCF Hessian            
  Marcos Casanova-Páez   : Triplet and SCS-CIS(D). UHF-(DLPNO)-IP/EA/STEOM-CCSD. UHF-CVS-IP/STEOM-CCSD   
  Vijay G. Chilkuri      : MRCI spin determinant printing, contributions to CSF-ICE 
  Pauline Colinet        : FMM embedding                                 
  Dipayan Datta          : RHF DLPNO-CCSD density                        
  Achintya Kumar Dutta   : EOM-CC, STEOM-CC                              
  Nicolas Foglia         : Exact transition moments, OPA infrastructure, MCD improvements    
  Dmitry Ganyushin       : Spin-Orbit,Spin-Spin,Magnetic field MRCI      
  Miquel Garcia-Rates    : C-PCM and meta-GGA Hessian, CCSD/C-PCM, Gaussian charge scheme 
  Tiago L. C. Gouveia    : GS-ROHF, GS-ROCIS                             
  Yang Guo               : DLPNO-NEVPT2, F12-NEVPT2, CIM, IAO-localization        
  Andreas Hansen         : Spin unrestricted coupled pair/coupled cluster methods 
  Ingolf Harden          : AUTO-CI MPn and infrastructure                
  Benjamin Helmich-Paris : MC-RPA, TRAH-(SCF,CASSCF), AVAS, COSX integrals, SCF dyn. polar. 
  Lee Huntington         : MR-EOM, pCC                                   
  Robert Izsak           : Overlap fitted RIJCOSX, COSX-SCS-MP3, EOM     
  Riya Kayal             : Wick's Theorem for AUTO-CI, AUTO-CI UHF-CCSDT 
  Emily Kempfer          : AUTO-CI, RHF CISDT and CCSDT                  
  Christian Kollmar      : KDIIS, OOCD, Brueckner-CCSD(T), CCSD density, CASPT2, CASPT2-K, improved NEVPT2 
  Axel Koslowski         : Symmetry handling                             
  Simone Kossmann        : meta-GGA functionals, TD-DFT gradient, OOMP2, (MP2 Hessian; deprecated post 5.0) 
  Lucas Lang             : DCDCAS                                        
  Marvin Lechner         : AUTO-CI (C++ implementation), FIC-MRCC        
  Spencer Leger          : CASSCF response                               
  Dagmar Lenk            : GEPOL surface, SMD, ORCA-2-JSON               
  Dimitrios Liakos       : Extrapolation schemes; Compound Job, initial MDCI parallelization 
  Dimitrios Manganas     : Further ROCIS development; embedding schemes. LFT, Crystal Embedding 
  Dimitrios Pantazis     : SARC Basis sets                               
  Anastasios Papadopoulos: AUTO-CI, single reference methods and gradients 
  Taras Petrenko         : pre 6.0 DFT Hessian and TD-DFT gradient, (ASA, deprecated), ECA, 1-Electron XAS/XES, NRVS 
  Peter Pinski           : DLPNO-MP2, DLPNO-MP2 Gradient                 
  Christoph Reimann      : Effective Core Potentials                     
  Marius Retegan         : Local ZFS, SOC                                
  Christoph Riplinger    : Optimizer, TS searches, QM/MM, DLPNO-CCSD(T), (RO)-DLPNO pert. Triples 
  Michael Roemelt        : Original ROCIS implementation                 
  Masaaki Saitow         : Open-shell DLPNO-CCSD energy and density      
  Barbara Sandhoefer     : DKH picture change effects                    
  Kantharuban Sivalingam : CASSCF convergence/infrastructure, NEVPT2 and variants, FIC-MRCI 
  Bernardo de Souza      : ESD, SOC TD-DFT                               
  Georgi L. Stoychev     : AutoAux, RI-MP2 NMR, DLPNO-MP2 response, X2C  
  Van Anh Tran           : RI-MP2 g-tensors                              
  Willem Van den Heuvel  : Paramagnetic NMR                              
  Zikuan Wang            : NOTCH, Electric field optimization            
  Frank Wennmohs         : Technical directorship and infrastructure     
  Hang Xu                : AUTO-CI-Response properties                   
                                                                         
[FACCTs GmbH]                                                            
  Markus Bursch, Miquel Garcia-Rates, Christoph Riplinger, Bernardo de Souza, Georgi L. Stoychev 
                                                                 
  APM, Basis sets (HGBS, AHGBS, def-TZVP (Ac-Lr), def2-XVPD (La-Lu)), CI-OPT, improved COSX, DLPNO-Multilevel,           
  DOCKER, DRACO, updates on ESD, GOAT, IRC, LR-CPCM, MBIS, meta-GGA TD-DFT gradient, ML-optimized integration grids, 
  MM, NACMEs, nearIR, NEB, NEB-TS, NL-DFT gradient (VV10), 2- and 3-layer-ONIOM, interface openCOSMO-RS, QMMM,   
  Crystal-QMMM, SF, symmetry and pop. for TD-DFT, r2SCAN hybrids, SOLVATOR                                   
                                                                         
[Other institutions]                                                     
  V. Asgeirsson          : NEB                                           
  Christoph Bannwarth    : sTDA-DFT, sTD-DFT, PBEh-3c, B97-3c, D3        
  Sebastian Ehlert       : rSCAN, r2SCAN, r2SCAN-3c, D4, dhf basis sets  
  Marvin Friede          : D4 for Fr, Ra, Ac-Lr                          
  Lars Goerigk           : TD-DFT with DH, B97 family of functionals     
  Stefan Grimme          : VdW corrections, initial TS optimization, DFT functionals, gCP, sTDA/sTD-DF 
  Waldemar Hujo          : DFT-NL                                        
  H. Jonsson             : NEB                                           
  Holger Kruse           : gCP                                           
  Marcel Mueller         : wB97X-3c, vDZP basis set                      
  Hagen Neugebauer       : wr2SCAN                                       
  Tobias Risthaus        : range-separated hybrid DFT                    
  Lukas Wittmann         : regularized MP2, r2SCAN double-hybrids, wr2SCAN        
                                                                         
We gratefully acknowledge several colleagues who have allowed us to      
interface, adapt or use parts of their codes:                            
  Ed Valeev, F. Pavosevic, A. Kumar             : LibInt (2-el integral package), F12 methods 
  Garnet Chan, S. Sharma, J. Yang, R. Olivares  : DMRG                   
  Ulf Ekstrom                                   : XCFun DFT Library      
  Mihaly Kallay                                 : mrcc  (arbitrary order and MRCC methods)
  Frank Weinhold                                : gennbo (NPA and NBO analysis)           
  Simon Mueller                                 : openCOSMO-RS                            
  Christopher J. Cramer and Donald G. Truhlar   : smd solvation model                     
  S Lehtola, MJT Oliveira, MAL Marques          : LibXC Library                           
  Liviu Ungur et al                             : ANISO software                          


 Your calculation uses the libint2 library for the computation of 2-el integrals
 For citations please refer to: http://libint.valeyev.net

 Your ORCA version has been built with support for libXC version: 6.2.2
 For citations please refer to: https://libxc.gitlab.io

 This ORCA versions uses:
   CBLAS   interface :  Fast vector & matrix operations
   LAPACKE interface :  Fast linear algebra routines
   SCALAPACK package :  Parallel linear algebra routines
   Shared memory     :  Shared parallel matrices
   BLAS/LAPACK       :  OpenBLAS 0.3.27  USE64BITINT DYNAMIC_ARCH NO_AFFINITY SkylakeX SINGLE_THREADED
        Core in use  :  SkylakeX
   Copyright (c) 2011-2014, The OpenBLAS Project


Your calculation utilizes the atom-pairwise dispersion correction
with the Becke-Johnson damping scheme (D3BJ)


Warning: RI is on but no J-basis has been assigned. Assigning Def2/J (nothing to worry about!)
================================================================================

----- Orbital basis set information -----
Your calculation utilizes the basis: def2-SVP
   F. Weigend and R. Ahlrichs, Phys. Chem. Chem. Phys. 7, 3297 (2005).

----- AuxJ basis set information -----
Your calculation utilizes the auxiliary basis: def2/J
   F. Weigend, Phys. Chem. Chem. Phys. 8, 1057 (2006).

================================================================================
                                        WARNINGS
                       Please study these warnings very carefully!
================================================================================


WARNING: Geometry Optimization
  ===> : Switching off AutoStart
         For restart on a previous wavefunction, please use MOREAD

================================================================================
                                       INPUT FILE
================================================================================
NAME = honokiol_2.inp
|  1> ! B3LYP def2-SVP OPT TightSCF ALLPOP KEEPDENS D3BJ
|  2> 
|  3> %pal
|  4> nprocs 14
|  5> end
|  6> 
|  7> * xyz 0 1
|  8> O          0.29040        2.69180       -1.03220
|  9> O         -4.31070       -0.42590        1.63560
| 10> C          0.96360        0.69900        0.13120
| 11> C         -0.39990        0.40560        0.51570
| 12> C         -2.51970       -0.66010        0.05970
| 13> C         -1.20520       -0.37760       -0.31140
| 14> C          3.30650        0.10170        0.16880
| 15> C          1.98560       -0.16460        0.52960
| 16> C          1.26710        1.82980       -0.62940
| 17> C         -0.90920        0.90620        1.71370
| 18> C         -3.02920       -0.15950        1.25790
| 19> C         -3.36780       -1.50000       -0.83750
| 20> C          4.39720       -0.82180        0.59540
| 21> C          3.60780        1.23180       -0.59100
| 22> C         -2.22370        0.62350        2.08490
| 23> C          2.58810        2.09590       -0.99000
| 24> C         -4.13330       -0.69030       -1.85080
| 25> C          4.65950       -1.92370       -0.39840
| 26> C         -5.46840       -0.63560       -1.91540
| 27> C          4.50110       -3.22600       -0.13640
| 28> H         -0.81010       -0.76760       -1.24750
| 29> H          1.75600       -1.04870        1.12160
| 30> H         -0.29500        1.51850        2.36980
| 31> H         -2.73510       -2.21550       -1.37960
| 32> H         -4.04480       -2.12650       -0.24250
| 33> H          5.32740       -0.25690        0.73970
| 34> H          4.16110       -1.23780        1.58380
| 35> H          4.63250        1.45000       -0.88010
| 36> H         -2.60750        1.02000        3.02110
| 37> H          2.83790        2.97250       -1.58190
| 38> H         -3.55590       -0.12960       -2.58200
| 39> H          5.01500       -1.63310       -1.38400
| 40> H          0.69310        3.41190       -1.54700
| 41> H         -4.48550        0.00370        2.49040
| 42> H         -5.95770       -0.03760       -2.67630
| 43> H         -6.09220       -1.18040       -1.21550
| 44> H          4.71560       -3.96940       -0.89620
| 45> H          4.15620       -3.57130        0.83190
| 46> *
| 47> 
| 48> 
| 49>                          ****END OF INPUT****
================================================================================

                       *****************************
                       * Geometry Optimization Run *
                       *****************************

Geometry optimization settings:
Update method            Update   .... BFGS
Choice of coordinates    CoordSys .... (2022) Redundant Internals
Initial Hessian          InHess   .... Almloef's Model
Max. no of cycles        MaxIter  .... 114

Convergence Tolerances:
Energy Change            TolE     ....  5.0000e-06 Eh
Max. Gradient            TolMAXG  ....  3.0000e-04 Eh/bohr
RMS Gradient             TolRMSG  ....  1.0000e-04 Eh/bohr
Max. Displacement        TolMAXD  ....  4.0000e-03 bohr
RMS Displacement         TolRMSD  ....  2.0000e-03 bohr
Strict Convergence                .... False

------------------------------------------------------------------------------
                        ORCA OPTIMIZATION COORDINATE SETUP
------------------------------------------------------------------------------

The optimization will be done in redundant internal coordinates (2022)
Making redundant internal coordinates   ...  (2022 redundants) done
Evaluating the initial hessian          ...  (Almloef) done
Evaluating the coordinates              ...  done
Calculating the B-matrix                .... done
Calculating the G-matrix                .... done
Diagonalizing the G-matrix              .... done
Small eigenvalue found = 4.065e-03
Small eigenvalue found = 6.328e-03
Small eigenvalue found = 1.004e-02
Small eigenvalue found = 1.819e-02
Small eigenvalue found = 2.590e-02
Small eigenvalue found = 2.991e-02
The first mode is                       ....   77
The number of degrees of freedom        ....  108

    -----------------------------------------------------------------
                    Redundant Internal Coordinates


    -----------------------------------------------------------------
         Definition                    Initial Value    Approx d2E/dq
    -----------------------------------------------------------------
      1. B(C   3,C   2)                  1.4467         0.507240   
      2. B(C   5,C   3)                  1.3950         0.613441   
      3. B(C   5,C   4)                  1.3948         0.613904   
      4. B(C   7,C   6)                  1.3949         0.613551   
      5. B(C   7,C   2)                  1.3961         0.611018   
      6. B(C   8,C   2)                  1.3962         0.610760   
      7. B(C   8,O   0)                  1.3635         0.616729   
      8. B(C   9,C   3)                  1.3947         0.614099   
      9. B(C  10,C   4)                  1.3949         0.613547   
     10. B(C  10,O   1)                  1.3623         0.619534   
     11. B(C  11,C   4)                  1.4932         0.427637   
     12. B(C  12,C   6)                  1.4915         0.430386   
     13. B(C  13,C   6)                  1.3947         0.614089   
     14. B(C  14,C  10)                  1.3949         0.613568   
     15. B(C  14,C   9)                  1.3949         0.613753   
     16. B(C  15,C  13)                  1.3949         0.613721   
     17. B(C  15,C   8)                  1.3949         0.613540   
     18. B(C  16,C  11)                  1.5061         0.407836   
     19. B(C  17,C  12)                  1.5069         0.406722   
     20. B(C  18,C  16)                  1.3378         0.756922   
     21. B(C  19,C  17)                  1.3378         0.756857   
     22. B(H  20,C   5)                  1.0883         0.362301   
     23. B(H  21,C   7)                  1.0885         0.362102   
     24. B(H  22,C   9)                  1.0875         0.363445   
     25. B(H  23,C  11)                  1.0982         0.349368   
     26. B(H  24,C  11)                  1.0977         0.350109   
     27. B(H  25,C  12)                  1.0978         0.349904   
     28. B(H  26,C  12)                  1.0981         0.349595   
     29. B(H  27,C  13)                  1.0868         0.364318   
     30. B(H  28,C  14)                  1.0867         0.364450   
     31. B(H  29,C  15)                  1.0868         0.364334   
     32. B(H  30,C  16)                  1.0874         0.363562   
     33. B(H  31,C  17)                  1.0873         0.363681   
     34. B(H  32,O   0)                  0.9725         0.496644   
     35. B(H  33,O   1)                  0.9725         0.496584   
     36. B(H  34,C  18)                  1.0844         0.367545   
     37. B(H  35,C  18)                  1.0843         0.367666   
     38. B(H  36,C  19)                  1.0844         0.367568   
     39. B(H  37,C  19)                  1.0843         0.367666   
     40. A(C   8,O   0,H  32)          109.1399         0.366880   
     41. A(C  10,O   1,H  33)          109.0496         0.367158   
     42. A(C   7,C   2,C   8)          119.8243         0.431761   
     43. A(C   3,C   2,C   7)          119.2513         0.417652   
     44. A(C   3,C   2,C   8)          120.9244         0.417620   
     45. A(C   2,C   3,C   9)          119.9771         0.418026   
     46. A(C   2,C   3,C   5)          120.0230         0.417946   
     47. A(C   5,C   3,C   9)          119.9999         0.432492   
     48. A(C  10,C   4,C  11)          120.6980         0.405491   
     49. A(C   5,C   4,C  11)          119.2971         0.405533   
     50. A(C   5,C   4,C  10)          120.0049         0.432481   
     51. A(C   3,C   5,H  20)          120.1050         0.352638   
     52. A(C   3,C   5,C   4)          120.0008         0.432467   
     53. A(C   4,C   5,H  20)          119.8941         0.352683   
     54. A(C   7,C   6,C  13)          120.0102         0.432505   
     55. A(C   7,C   6,C  12)          120.0193         0.405951   
     56. A(C  12,C   6,C  13)          119.9705         0.406014   
     57. A(C   2,C   7,H  21)          120.2138         0.352369   
     58. A(C   6,C   7,H  21)          119.7005         0.352616   
     59. A(C   2,C   7,C   6)          120.0857         0.432115   
     60. A(O   0,C   8,C   2)          121.1471         0.429657   
     61. A(C   2,C   8,C  15)          120.0781         0.432081   
     62. A(O   0,C   8,C  15)          118.7748         0.430008   
     63. A(C   3,C   9,C  14)          119.9983         0.432532   
     64. A(C  14,C   9,H  22)          119.0657         0.352856   
     65. A(C   3,C   9,H  22)          120.9360         0.352890   
     66. A(O   1,C  10,C   4)          120.7674         0.430359   
     67. A(O   1,C  10,C  14)          119.2480         0.430362   
     68. A(C   4,C  10,C  14)          119.9846         0.432438   
     69. A(C   4,C  11,C  16)          112.9877         0.377548   
     70. A(H  23,C  11,H  24)          104.5391         0.288189   
     71. A(C  16,C  11,H  24)          110.9812         0.327515   
     72. A(C   4,C  11,H  24)          110.2213         0.330088   
     73. A(C  16,C  11,H  23)          108.1176         0.327401   
     74. A(C   4,C  11,H  23)          109.6231         0.329973   
     75. A(C   6,C  12,C  17)          113.0443         0.377788   
     76. A(H  25,C  12,H  26)          104.9997         0.288192   
     77. A(C   6,C  12,H  26)          109.5606         0.330358   
     78. A(C  17,C  12,H  25)          108.3895         0.327336   
     79. A(C   6,C  12,H  25)          109.7928         0.330406   
     80. A(C  17,C  12,H  26)          110.7349         0.327288   
     81. A(C   6,C  13,C  15)          119.9908         0.432526   
     82. A(C  15,C  13,H  27)          119.2607         0.352997   
     83. A(C   6,C  13,H  27)          120.7485         0.353032   
     84. A(C  10,C  14,H  28)          120.7705         0.353003   
     85. A(C   9,C  14,H  28)          119.2181         0.353021   
     86. A(C   9,C  14,C  10)          120.0114         0.432464   
     87. A(C  13,C  15,H  29)          119.1713         0.352999   
     88. A(C   8,C  15,H  29)          120.8177         0.352982   
     89. A(C   8,C  15,C  13)          120.0110         0.432457   
     90. A(C  11,C  16,C  18)          124.1744         0.417355   
     91. A(C  18,C  16,H  30)          118.4489         0.365700   
     92. A(C  11,C  16,H  30)          117.3699         0.329559   
     93. A(C  12,C  17,C  19)          124.1995         0.417146   
     94. A(C  19,C  17,H  31)          118.4512         0.365715   
     95. A(C  12,C  17,H  31)          117.3419         0.329428   
     96. A(H  34,C  18,H  35)          118.0592         0.292733   
     97. A(C  16,C  18,H  35)          121.4944         0.366404   
     98. A(C  16,C  18,H  34)          120.4463         0.366383   
     99. A(H  36,C  19,H  37)          118.0531         0.292736   
    100. A(C  17,C  19,H  37)          121.5026         0.366398   
    101. A(C  17,C  19,H  36)          120.4443         0.366382   
    102. D(C   5,C   3,C   2,C   8)     90.0060         0.017531   
    103. D(C   9,C   3,C   2,C   8)    -89.9875         0.017531   
    104. D(C   9,C   3,C   2,C   7)     90.0060         0.017531   
    105. D(C   5,C   3,C   2,C   7)    -90.0006         0.017531   
    106. D(H  20,C   5,C   4,C  11)      0.1081         0.026048   
    107. D(H  20,C   5,C   3,C   2)     -0.1057         0.026007   
    108. D(H  20,C   5,C   4,C  10)   -179.8895         0.026048   
    109. D(C   3,C   5,C   4,C  10)      0.0005         0.026048   
    110. D(C   3,C   5,C   4,C  11)    179.9981         0.026048   
    111. D(C   4,C   5,C   3,C   9)     -0.0021         0.026007   
    112. D(C   4,C   5,C   3,C   2)   -179.9955         0.026007   
    113. D(H  20,C   5,C   3,C   9)    179.8877         0.026007   
    114. D(C   6,C   7,C   2,C   3)   -179.9871         0.025790   
    115. D(C   6,C   7,C   2,C   8)      0.0064         0.025790   
    116. D(H  21,C   7,C   2,C   3)      0.0854         0.025790   
    117. D(H  21,C   7,C   6,C  13)    179.9229         0.026016   
    118. D(H  21,C   7,C   6,C  12)     -0.0814         0.026016   
    119. D(C   2,C   7,C   6,C  13)     -0.0049         0.026016   
    120. D(C   2,C   7,C   6,C  12)    179.9908         0.026016   
    121. D(H  21,C   7,C   2,C   8)   -179.9211         0.025790   
    122. D(C  15,C   8,C   2,C   7)     -0.0099         0.025767   
    123. D(C  15,C   8,C   2,C   3)    179.9835         0.025767   
    124. D(O   0,C   8,C   2,C   7)   -179.9515         0.025767   
    125. D(C  15,C   8,O   0,H  32)      0.0452         0.027884   
    126. D(O   0,C   8,C   2,C   3)      0.0420         0.025767   
    127. D(C   2,C   8,O   0,H  32)    179.9875         0.027884   
    128. D(H  22,C   9,C   3,C   5)   -179.9833         0.026066   
    129. D(C  14,C   9,C   3,C   5)      0.0122         0.026066   
    130. D(H  22,C   9,C   3,C   2)      0.0102         0.026066   
    131. D(C  14,C   9,C   3,C   2)   -179.9944         0.026066   
    132. D(C   4,C  10,O   1,H  33)   -179.9454         0.028157   
    133. D(C  14,C  10,C   4,C  11)    179.9934         0.026016   
    134. D(C  14,C  10,C   4,C   5)     -0.0090         0.026016   
    135. D(O   1,C  10,C   4,C  11)      0.0106         0.026016   
    136. D(O   1,C  10,C   4,C   5)   -179.9919         0.026016   
    137. D(C  14,C  10,O   1,H  33)      0.0716         0.028157   
    138. D(H  24,C  11,C   4,C   5)    145.1962         0.013509   
    139. D(H  23,C  11,C   4,C  10)   -149.3480         0.013509   
    140. D(H  23,C  11,C   4,C   5)     30.6544         0.013509   
    141. D(C  16,C  11,C   4,C  10)     89.9968         0.013509   
    142. D(C  16,C  11,C   4,C   5)    -90.0008         0.013509   
    143. D(H  26,C  12,C   6,C   7)    -34.0197         0.013680   
    144. D(H  25,C  12,C   6,C  13)     31.1553         0.013680   
    145. D(H  25,C  12,C   6,C   7)   -148.8404         0.013680   
    146. D(C  17,C  12,C   6,C  13)    -90.0058         0.013680   
    147. D(C  17,C  12,C   6,C   7)     89.9985         0.013680   
    148. D(H  27,C  13,C   6,C  12)      0.0993         0.026065   
    149. D(H  27,C  13,C   6,C   7)   -179.9050         0.026065   
    150. D(C  15,C  13,C   6,C  12)   -179.9887         0.026065   
    151. D(C  15,C  13,C   6,C   7)      0.0070         0.026065   
    152. D(H  28,C  14,C  10,C   4)   -179.9979         0.026018   
    153. D(H  28,C  14,C  10,O   1)     -0.0148         0.026018   
    154. D(C   9,C  14,C  10,C   4)      0.0191         0.026018   
    155. D(C   9,C  14,C  10,O   1)   -179.9978         0.026018   
    156. D(H  28,C  14,C   9,H  22)     -0.0084         0.026035   
    157. D(H  28,C  14,C   9,C   3)    179.9961         0.026035   
    158. D(C  10,C  14,C   9,H  22)    179.9749         0.026035   
    159. D(C  10,C  14,C   9,C   3)     -0.0207         0.026035   
    160. D(C   8,C  15,C  13,C   6)     -0.0105         0.026032   
    161. D(H  29,C  15,C   8,C   2)    179.9913         0.026015   
    162. D(H  29,C  15,C   8,O   0)     -0.0657         0.026015   
    163. D(C  13,C  15,C   8,C   2)      0.0119         0.026015   
    164. D(C  13,C  15,C   8,O   0)    179.9549         0.026015   
    165. D(H  29,C  15,C  13,H  27)     -0.0769         0.026032   
    166. D(H  29,C  15,C  13,C   6)   -179.9902         0.026032   
    167. D(C   8,C  15,C  13,H  27)    179.9028         0.026032   
    168. D(H  30,C  16,C  11,H  23)    -58.1930         0.012324   
    169. D(H  30,C  16,C  11,C   4)     63.3159         0.012324   
    170. D(C  18,C  16,C  11,H  24)      6.7363         0.012324   
    171. D(C  18,C  16,C  11,H  23)    120.8385         0.012324   
    172. D(C  18,C  16,C  11,C   4)   -117.6526         0.012324   
    173. D(H  31,C  17,C  12,H  25)    -58.5091         0.012259   
    174. D(H  31,C  17,C  12,C   6)     63.4429         0.012259   
    175. D(C  19,C  17,C  12,H  26)      5.8096         0.012259   
    176. D(C  19,C  17,C  12,H  25)    120.4856         0.012259   
    177. D(C  19,C  17,C  12,C   6)   -117.5624         0.012259   
    178. D(H  35,C  18,C  16,H  30)    179.5892         0.040932   
    179. D(H  35,C  18,C  16,C  11)      0.5674         0.040932   
    180. D(H  34,C  18,C  16,H  30)     -0.5082         0.040932   
    181. D(H  34,C  18,C  16,C  11)   -179.5299         0.040932   
    182. D(H  37,C  19,C  17,H  31)    179.5624         0.040924   
    183. D(H  37,C  19,C  17,C  12)      0.5780         0.040924   
    184. D(H  36,C  19,C  17,H  31)     -0.5262         0.040924   
    185. D(H  36,C  19,C  17,C  12)   -179.5106         0.040924   
    -----------------------------------------------------------------

Number of atoms                         .... 38
Number of degrees of freedom            .... 185


         *************************************************************
         *                GEOMETRY OPTIMIZATION CYCLE   1            *
         *************************************************************
---------------------------------
CARTESIAN COORDINATES (ANGSTROEM)
---------------------------------
  O      0.290400    2.691800   -1.032200
  O     -4.310700   -0.425900    1.635600
  C      0.963600    0.699000    0.131200
  C     -0.399900    0.405600    0.515700
  C     -2.519700   -0.660100    0.059700
  C     -1.205200   -0.377600   -0.311400
  C      3.306500    0.101700    0.168800
  C      1.985600   -0.164600    0.529600
  C      1.267100    1.829800   -0.629400
  C     -0.909200    0.906200    1.713700
  C     -3.029200   -0.159500    1.257900
  C     -3.367800   -1.500000   -0.837500
  C      4.397200   -0.821800    0.595400
  C      3.607800    1.231800   -0.591000
  C     -2.223700    0.623500    2.084900
  C      2.588100    2.095900   -0.990000
  C     -4.133300   -0.690300   -1.850800
  C      4.659500   -1.923700   -0.398400
  C     -5.468400   -0.635600   -1.915400
  C      4.501100   -3.226000   -0.136400
  H     -0.810100   -0.767600   -1.247500
  H      1.756000   -1.048700    1.121600
  H     -0.295000    1.518500    2.369800
  H     -2.735100   -2.215500   -1.379600
  H     -4.044800   -2.126500   -0.242500
  H      5.327400   -0.256900    0.739700
  H      4.161100   -1.237800    1.583800
  H      4.632500    1.450000   -0.880100
  H     -2.607500    1.020000    3.021100
  H      2.837900    2.972500   -1.581900
  H     -3.555900   -0.129600   -2.582000
  H      5.015000   -1.633100   -1.384000
  H      0.693100    3.411900   -1.547000
  H     -4.485500    0.003700    2.490400
  H     -5.957700   -0.037600   -2.676300
  H     -6.092200   -1.180400   -1.215500
  H      4.715600   -3.969400   -0.896200
  H      4.156200   -3.571300    0.831900

----------------------------
CARTESIAN COORDINATES (A.U.)
----------------------------
  NO LB      ZA    FRAG     MASS         X           Y           Z
   0 O     8.0000    0    15.999    0.548776    5.086765   -1.950575
   1 O     8.0000    0    15.999   -8.146042   -0.804834    3.090836
   2 C     6.0000    0    12.011    1.820940    1.320919    0.247932
   3 C     6.0000    0    12.011   -0.755701    0.766473    0.974532
   4 C     6.0000    0    12.011   -4.761543   -1.247408    0.112817
   5 C     6.0000    0    12.011   -2.277498   -0.713561   -0.588461
   6 C     6.0000    0    12.011    6.248379    0.192185    0.318986
   7 C     6.0000    0    12.011    3.752240   -0.311049    1.000799
   8 C     6.0000    0    12.011    2.394472    3.457821   -1.189394
   9 C     6.0000    0    12.011   -1.718139    1.712470    3.238424
  10 C     6.0000    0    12.011   -5.724358   -0.301411    2.377087
  11 C     6.0000    0    12.011   -6.364220   -2.834589   -1.582646
  12 C     6.0000    0    12.011    8.309504   -1.552977    1.125143
  13 C     6.0000    0    12.011    6.817754    2.327765   -1.116828
  14 C     6.0000    0    12.011   -4.202184    1.178244    3.939890
  15 C     6.0000    0    12.011    4.890800    3.960677   -1.870829
  16 C     6.0000    0    12.011   -7.810805   -1.304478   -3.497505
  17 C     6.0000    0    12.011    8.805179   -3.635266   -0.752867
  18 C     6.0000    0    12.011  -10.333778   -1.201110   -3.619581
  19 C     6.0000    0    12.011    8.505846   -6.096257   -0.257759
  20 H     1.0000    0     1.008   -1.530867   -1.450554   -2.357433
  21 H     1.0000    0     1.008    3.318359   -1.981756    2.119517
  22 H     1.0000    0     1.008   -0.557469    2.869549    4.478273
  23 H     1.0000    0     1.008   -5.168590   -4.186688   -2.607066
  24 H     1.0000    0     1.008   -7.643564   -4.018503   -0.458259
  25 H     1.0000    0     1.008   10.067327   -0.485471    1.397830
  26 H     1.0000    0     1.008    7.863339   -2.339103    2.992948
  27 H     1.0000    0     1.008    8.754156    2.740103   -1.663148
  28 H     1.0000    0     1.008   -4.927461    1.927521    5.709052
  29 H     1.0000    0     1.008    5.362854    5.617211   -2.989358
  30 H     1.0000    0     1.008   -6.719677   -0.244909   -4.879273
  31 H     1.0000    0     1.008    9.476977   -3.086112   -2.615381
  32 H     1.0000    0     1.008    1.309769    6.447557   -2.923406
  33 H     1.0000    0     1.008   -8.476367    0.006992    4.706174
  34 H     1.0000    0     1.008  -11.258421   -0.071054   -5.057474
  35 H     1.0000    0     1.008  -11.512590   -2.230633   -2.296962
  36 H     1.0000    0     1.008    8.911193   -7.501079   -1.693573
  37 H     1.0000    0     1.008    7.854080   -6.748779    1.572063

--------------------------------
INTERNAL COORDINATES (ANGSTROEM)
--------------------------------
 O      0   0   0     0.000000000000     0.00000000     0.00000000
 O      1   0   0     6.165008624487     0.00000000     0.00000000
 C      1   2   0     2.403736599547    65.18583200     0.00000000
 C      3   1   2     1.446739803835    91.88033023     0.20113723
 C      2   1   3     2.397079775477    37.56109038   303.41800640
 C      5   2   1     1.394787335044   149.23562110    39.74082646
 C      3   1   2     2.418131811957   118.92454407   180.22422818
 C      7   3   1     1.394944135082    29.97048802   179.97684287
 C      1   2   3     1.363537579240    94.99450392   359.91760120
 C      4   3   1     1.394700989460   119.97707672   270.03289238
 C      2   1   3     1.362302646257    22.93821946   358.50245436
 C      5   2   1     1.493209114625    91.46731365   219.73614375
 C      7   3   1     1.491464481642   149.98974343   179.96083236
 C      7   3   1     1.394705610514    90.03972909   359.97256302
 C     10   4   3     1.394854465527   119.99831248   180.00559934
 C     14   7   3     1.394868416733   119.99077065     0.00000000
 C     12   5   2     1.506114613833   112.98765184    90.00195910
 C     13   7   3     1.506858765777   113.04434118    90.00772679
 C     17  12   5     1.337780721942   124.17437243   242.34736497
 C     18  13   7     1.337804114959   124.19954523   242.43759850
 H      6   5   2     1.088341499714   119.89407049   180.10273428
 H      8   7   3     1.088491143740   119.70049472   179.92782121
 H     10   4   3     1.087483397574   120.93601151     0.00000000
 H     12   5   2     1.098235835329   109.62307362   210.65717831
 H     12   5   2     1.097659441721   110.22127707   325.19892404
 H     13   7   3     1.097818992366   109.79282646   211.16885071
 H     13   7   3     1.098059092217   109.56059215   325.98952071
 H     14   7   3     1.086830317943   120.74849514   180.09253027
 H     15  10   4     1.086731397356   119.21812895   179.99607448
 H     16  14   7     1.086817928634   119.17131835   180.00982506
 H     17  12   5     1.087395369679   117.36987907    63.31593226
 H     18  13   7     1.087306750646   117.34192876    63.44287277
 H      1   2   3     0.972486678572   155.86506763   180.29412434
 H      2   1   3     0.972519531938   106.92409431    97.49827090
 H     19  17  12     1.084429481340   120.44632238   180.47007160
 H     19  17  12     1.084340117306   121.49444129     0.56744796
 H     20  18  13     1.084412214059   120.44426549   180.48940772
 H     20  18  13     1.084339886751   121.50262090     0.57803638

---------------------------
INTERNAL COORDINATES (A.U.)
---------------------------
 O      0   0   0     0.000000000000     0.00000000     0.00000000
 O      1   0   0    11.650177913543     0.00000000     0.00000000
 C      1   2   0     4.542403871226    65.18583200     0.00000000
 C      3   1   2     2.733942016291    91.88033023     0.20113723
 C      2   1   3     4.529824296813    37.56109038   303.41800640
 C      5   2   1     2.635766078296   149.23562110    39.74082646
 C      3   1   2     4.569606880322   118.92454407   180.22422818
 C      7   3   1     2.636062387425    29.97048802   179.97684287
 C      1   2   3     2.576712598074    94.99450392   359.91760120
 C      4   3   1     2.635602908788   119.97707672   270.03289238
 C      2   1   3     2.574378912943    22.93821946   358.50245436
 C      5   2   1     2.821756287317    91.46731365   219.73614375
 C      7   3   1     2.818459408774   149.98974343   179.96083236
 C      7   3   1     2.635611641315    90.03972909   359.97256302
 C     10   4   3     2.635892936523   119.99831248   180.00559934
 C     14   7   3     2.635919300482   119.99077065     0.00000000
 C     12   5   2     2.846144146440   112.98765184    90.00195910
 C     13   7   3     2.847550389818   113.04434118    90.00772679
 C     17  12   5     2.528039191710   124.17437243   242.34736497
 C     18  13   7     2.528083398105   124.19954523   242.43759850
 H      6   5   2     2.056667374641   119.89407049   180.10273428
 H      8   7   3     2.056950160867   119.70049472   179.92782121
 H     10   4   3     2.055045796602   120.93601151     0.00000000
 H     12   5   2     2.075364959229   109.62307362   210.65717831
 H     12   5   2     2.074275733166   110.22127707   325.19892404
 H     13   7   3     2.074577240190   109.79282646   211.16885071
 H     13   7   3     2.075030963152   109.56059215   325.98952071
 H     14   7   3     2.053811654955   120.74849514   180.09253027
 H     15  10   4     2.053624722137   119.21812895   179.99607448
 H     16  14   7     2.053788242554   119.17131835   180.00982506
 H     17  12   5     2.054879447988   117.36987907    63.31593226
 H     18  13   7     2.054711982284   117.34192876    63.44287277
 H      1   2   3     1.837733491388   155.86506763   180.29412434
 H      2   1   3     1.837795575251   106.92409431    97.49827090
 H     19  17  12     2.049274731283   120.44632238   180.47007160
 H     19  17  12     2.049105857733   121.49444129     0.56744796
 H     20  18  13     2.049242100850   120.44426549   180.48940772
 H     20  18  13     2.049105422047   121.50262090     0.57803638

---------------------
BASIS SET INFORMATION
---------------------
There are 3 groups of distinct atoms

 Group   1 Type O   : 7s4p1d contracted to 3s2p1d pattern {511/31/1}
 Group   2 Type C   : 7s4p1d contracted to 3s2p1d pattern {511/31/1}
 Group   3 Type H   : 4s1p contracted to 2s1p pattern {31/1}

Atom   0O    basis set group =>   1
Atom   1O    basis set group =>   1
Atom   2C    basis set group =>   2
Atom   3C    basis set group =>   2
Atom   4C    basis set group =>   2
Atom   5C    basis set group =>   2
Atom   6C    basis set group =>   2
Atom   7C    basis set group =>   2
Atom   8C    basis set group =>   2
Atom   9C    basis set group =>   2
Atom  10C    basis set group =>   2
Atom  11C    basis set group =>   2
Atom  12C    basis set group =>   2
Atom  13C    basis set group =>   2
Atom  14C    basis set group =>   2
Atom  15C    basis set group =>   2
Atom  16C    basis set group =>   2
Atom  17C    basis set group =>   2
Atom  18C    basis set group =>   2
Atom  19C    basis set group =>   2
Atom  20H    basis set group =>   3
Atom  21H    basis set group =>   3
Atom  22H    basis set group =>   3
Atom  23H    basis set group =>   3
Atom  24H    basis set group =>   3
Atom  25H    basis set group =>   3
Atom  26H    basis set group =>   3
Atom  27H    basis set group =>   3
Atom  28H    basis set group =>   3
Atom  29H    basis set group =>   3
Atom  30H    basis set group =>   3
Atom  31H    basis set group =>   3
Atom  32H    basis set group =>   3
Atom  33H    basis set group =>   3
Atom  34H    basis set group =>   3
Atom  35H    basis set group =>   3
Atom  36H    basis set group =>   3
Atom  37H    basis set group =>   3
---------------------------------
AUXILIARY/J BASIS SET INFORMATION
---------------------------------
There are 3 groups of distinct atoms

 Group   1 Type O   : 12s5p4d2f1g contracted to 6s4p3d1f1g pattern {711111/2111/211/2/1}
 Group   2 Type C   : 12s5p4d2f1g contracted to 6s4p3d1f1g pattern {711111/2111/211/2/1}
 Group   3 Type H   : 5s2p1d contracted to 3s1p1d pattern {311/2/1}

Atom   0O    basis set group =>   1
Atom   1O    basis set group =>   1
Atom   2C    basis set group =>   2
Atom   3C    basis set group =>   2
Atom   4C    basis set group =>   2
Atom   5C    basis set group =>   2
Atom   6C    basis set group =>   2
Atom   7C    basis set group =>   2
Atom   8C    basis set group =>   2
Atom   9C    basis set group =>   2
Atom  10C    basis set group =>   2
Atom  11C    basis set group =>   2
Atom  12C    basis set group =>   2
Atom  13C    basis set group =>   2
Atom  14C    basis set group =>   2
Atom  15C    basis set group =>   2
Atom  16C    basis set group =>   2
Atom  17C    basis set group =>   2
Atom  18C    basis set group =>   2
Atom  19C    basis set group =>   2
Atom  20H    basis set group =>   3
Atom  21H    basis set group =>   3
Atom  22H    basis set group =>   3
Atom  23H    basis set group =>   3
Atom  24H    basis set group =>   3
Atom  25H    basis set group =>   3
Atom  26H    basis set group =>   3
Atom  27H    basis set group =>   3
Atom  28H    basis set group =>   3
Atom  29H    basis set group =>   3
Atom  30H    basis set group =>   3
Atom  31H    basis set group =>   3
Atom  32H    basis set group =>   3
Atom  33H    basis set group =>   3
Atom  34H    basis set group =>   3
Atom  35H    basis set group =>   3
Atom  36H    basis set group =>   3
Atom  37H    basis set group =>   3


           ************************************************************
           *        Program running with 14 parallel MPI-processes    *
           *              working on a common directory               *
           ************************************************************
------------------------------------------------------------------------------
                             ORCA STARTUP CALCULATIONS
                           -- RI-GTO INTEGRALS CHOSEN --
------------------------------------------------------------------------------
------------------------------------------------------------------------------
                   ___                                                        
                  /   \      - P O W E R E D   B Y -                         
                 /     \                                                     
                 |  |  |   _    _      __       _____    __    __             
                 |  |  |  | |  | |    /  \     |  _  \  |  |  /  |          
                  \  \/   | |  | |   /    \    | | | |  |  | /  /          
                 / \  \   | |__| |  /  /\  \   | |_| |  |  |/  /          
                |  |  |   |  __  | /  /__\  \  |    /   |      \           
                |  |  |   | |  | | |   __   |  |    \   |  |\   \          
                \     /   | |  | | |  |  |  |  | |\  \  |  | \   \       
                 \___/    |_|  |_| |__|  |__|  |_| \__\ |__|  \__/        
                                                                              
                      - O R C A' S   B I G   F R I E N D -                    
                                      &                                       
                       - I N T E G R A L  F E E D E R -                       
                                                                              
 v1 FN, 2020, v2 2021, v3 2022-2024                                           
------------------------------------------------------------------------------


----------------------
SHARK INTEGRAL PACKAGE
----------------------

Number of atoms                             ...     38
Number of basis functions                   ...    370
Number of shells                            ...    174
Maximum angular momentum                    ...      2
Integral batch strategy                     ... SHARK/LIBINT Hybrid
RI-J (if used) integral strategy            ... SPLIT-RIJ (Revised 2003 algorithm where possible)
Printlevel                                  ...      1
Contraction scheme used                     ... SEGMENTED contraction
Prescreening option                         ... SCHWARTZ
   Thresh                                   ... 2.500e-11
   Tcut                                     ... 2.500e-12
   Tpresel                                  ... 2.500e-12 
Coulomb Range Separation                    ... NOT USED
Exchange Range Separation                   ... NOT USED
Multipole approximations                    ... NOT USED
Finite Nucleus Model                        ... NOT USED
CABS basis                                  ... NOT available
Auxiliary Coulomb fitting basis             ... AVAILABLE
   # of basis functions in Aux-J            ...   1178
   # of shells in Aux-J                     ...    390
   Maximum angular momentum in Aux-J        ...      4
Auxiliary J/K fitting basis                 ... NOT available
Auxiliary Correlation fitting basis         ... NOT available
Auxiliary 'external' fitting basis          ... NOT available

Checking pre-screening integrals            ... done (  0.0 sec) Dimension = 174
Check shell pair data                       ... done (  0.0 sec)
Shell pair information
Shell pair cut-off parameter TPreSel        ...   2.5e-12
Total number of shell pairs                 ...     15225
Shell pairs after pre-screening             ...     10846
Total number of primitive shell pairs       ...     54929
Primitive shell pairs kept                  ...     25204
          la=0 lb=0:   3400 shell pairs
          la=1 lb=0:   4040 shell pairs
          la=1 lb=1:   1240 shell pairs
          la=2 lb=0:   1271 shell pairs
          la=2 lb=1:    770 shell pairs
          la=2 lb=2:    125 shell pairs

Calculating one electron integrals          ... done (  0.0 sec)
Calculating RI/J V-Matrix + Cholesky decomp.... done (  0.0 sec)
Calculating Nuclear repulsion               ... done (  0.0 sec) ENN=   1415.476981817476 Eh

Diagonalization of the overlap matrix:
Smallest eigenvalue                        ... 2.087e-04
Time for diagonalization                   ...    0.012 sec
Threshold for overlap eigenvalues          ... 1.000e-07
Number of eigenvalues below threshold      ... 0
Time for construction of square roots      ...    0.006 sec
Total time needed                          ...    0.019 sec

-------------------
DFT GRID GENERATION
-------------------

General Integration Accuracy     IntAcc      ... 4.388
Radial Grid Type                 RadialGrid  ... OptM3 with GC (2021)
Angular Grid (max. ang.)         AngularGrid ... 4 (Lebedev-302)
Angular grid pruning method      GridPruning ... 4 (adaptive)
Weight generation scheme         WeightScheme... mBecke (2022)
Basis function cutoff            BFCut       ... 1.0000e-11
Integration weight cutoff        WCut        ... 1.0000e-14
Partially contracted basis set               ... off
Rotationally invariant grid construction     ... off
Angular grids for H and He will be reduced by one unit

Total number of grid points                  ...   177301
Total number of batches                      ...     2790
Average number of points per batch           ...       63
Average number of grid points per atom       ...     4666

--------------------
COSX GRID GENERATION
--------------------

GRIDX 1
-------
General Integration Accuracy     IntAcc      ... 3.816
Radial Grid Type                 RadialGrid  ... OptM3 with GC (2021)
Angular Grid (max. ang.)         AngularGrid ... 1 (Lebedev-50)
Angular grid pruning method      GridPruning ... 4 (adaptive)
Weight generation scheme         WeightScheme... mBecke (2022)
Basis function cutoff            BFCut       ... 1.0000e-11
Integration weight cutoff        WCut        ... 1.0000e-14
Partially contracted basis set               ... on
Rotationally invariant grid construction     ... off
Angular grids for H and He will be reduced by one unit

Total number of grid points                  ...    22505
Total number of batches                      ...      198
Average number of points per batch           ...      113
Average number of grid points per atom       ...      592
UseSFitting                                  ... on

GRIDX 2
-------
General Integration Accuracy     IntAcc      ... 4.020
Radial Grid Type                 RadialGrid  ... OptM3 with GC (2021)
Angular Grid (max. ang.)         AngularGrid ... 2 (Lebedev-110)
Angular grid pruning method      GridPruning ... 4 (adaptive)
Weight generation scheme         WeightScheme... mBecke (2022)
Basis function cutoff            BFCut       ... 1.0000e-11
Integration weight cutoff        WCut        ... 1.0000e-14
Partially contracted basis set               ... on
Rotationally invariant grid construction     ... off
Angular grids for H and He will be reduced by one unit

Total number of grid points                  ...    48572
Total number of batches                      ...      400
Average number of points per batch           ...      121
Average number of grid points per atom       ...     1278
UseSFitting                                  ... on

GRIDX 3
-------
General Integration Accuracy     IntAcc      ... 4.338
Radial Grid Type                 RadialGrid  ... OptM3 with GC (2021)
Angular Grid (max. ang.)         AngularGrid ... 3 (Lebedev-194)
Angular grid pruning method      GridPruning ... 4 (adaptive)
Weight generation scheme         WeightScheme... mBecke (2022)
Basis function cutoff            BFCut       ... 1.0000e-11
Integration weight cutoff        WCut        ... 1.0000e-14
Partially contracted basis set               ... on
Rotationally invariant grid construction     ... off
Angular grids for H and He will be reduced by one unit

Total number of grid points                  ...   106344
Total number of batches                      ...      849
Average number of points per batch           ...      125
Average number of grid points per atom       ...     2799
UseSFitting                                  ... on
Initializing property integral containers    ... done (  0.0 sec)

SHARK setup successfully completed in   1.7 seconds

Maximum memory used throughout the entire STARTUP-calculation: 47.1 MB


           ************************************************************
           *        Program running with 14 parallel MPI-processes    *
           *              working on a common directory               *
           ************************************************************
-------------------------------------------------------------------------------
                                 ORCA GUESS
                   Start orbitals & Density for SCF / CASSCF
-------------------------------------------------------------------------------

------------
SCF SETTINGS
------------
Hamiltonian:
 Density Functional     Method          .... DFT(GTOs)
 Exchange Functional    Exchange        .... B88
   X-Alpha parameter    XAlpha          ....  0.666667
   Becke's b parameter  XBeta           ....  0.004200
 Correlation Functional Correlation     .... LYP
 LDA part of GGA corr.  LDAOpt          .... VWN-5
 Gradients option       PostSCFGGA      .... off
 Hybrid DFT is turned on
   Fraction HF Exchange ScalHFX         ....  0.200000
   Scaling of DF-GGA-X  ScalDFX         ....  0.720000
   Scaling of DF-GGA-C  ScalDFC         ....  0.810000
   Scaling of DF-LDA-C  ScalLDAC        ....  1.000000
   Perturbative correction              ....  0.000000
   NL short-range parameter             ....  4.800000
 RI-approximation to the Coulomb term is turned on
   Number of AuxJ basis functions       .... 1178
   RIJ-COSX (HFX calculated with COS-X)).... on


General Settings:
 Integral files         IntName         .... honokiol_2
 Hartree-Fock type      HFTyp           .... RHF
 Total Charge           Charge          ....    0
 Multiplicity           Mult            ....    1
 Number of Electrons    NEL             ....  142
 Basis Dimension        Dim             ....  370
 Nuclear Repulsion      ENuc            ....   1415.4769818175 Eh

Convergence Acceleration:
 AO-DIIS                CNVDIIS         .... on
   Start iteration      DIISMaxIt       ....    12
   Startup error        DIISStart       ....  0.200000
   # of expansion vecs  DIISMaxEq       ....     5
   Bias factor          DIISBfac        ....   1.050
   Max. coefficient     DIISMaxC        ....  10.000
 MO-DIIS                CNVKDIIS        .... off
 Trust-Rad. Augm. Hess. CNVTRAH         .... auto
   Auto Start mean grad. ratio tolernc. ....  1.125000
   Auto Start start iteration           ....    50
   Auto Start num. interpolation iter.  ....    10
   Max. Number of Micro iterations      ....    24
   Max. Number of Macro iterations      .... Maxiter - #DIIS iter
   Number of Davidson start vectors     ....     2
   Converg. threshold    (grad. norm)   ....   1.000e-05
   Grad. Scal. Fac. for Micro threshold ....   0.100
   Minimum threshold for Micro iter.    ....   1.000e-02
   NR start threshold (gradient norm)   ....   1.000e-04
   Initial trust radius                 ....   0.400
   Minimum AH scaling param. (alpha)    ....   1.000
   Maximum AH scaling param. (alpha)    .... 1000.000
   Quad. conv. algorithm                .... NR
   White noise on init. David. guess    .... on
   Maximum white noise                  ....   0.010
   Pseudo random numbers                .... off
   Inactive MOs                         .... canonical
   Orbital update algorithm             .... Taylor
   Preconditioner                       .... Diag
   Full preconditioner red. dimension   ....   250
 SOSCF                  CNVSOSCF        .... on
   Start iteration      SOSCFMaxIt      ....   150
   Startup grad/error   SOSCFStart      ....  0.003300
   Hessian update       SOSCFHessUp     .... L-BFGS
 Level Shifting         CNVShift        .... on
   Level shift para.    LevelShift      ....    0.2500
   Turn off err/grad.   ShiftErr        ....    0.0010
 Zerner damping         CNVZerner       .... off
 Static damping         CNVDamp         .... on
   Fraction old density DampFac         ....    0.7000
   Max. Damping (<1)    DampMax         ....    0.9800
   Min. Damping (>=0)   DampMin         ....    0.0000
   Turn off err/grad.   DampErr         ....    0.1000

SCF Procedure:
 Maximum # iterations   MaxIter         ....   125
 SCF integral mode      SCFMode         .... Direct
   Integral package                     .... SHARK and LIBINT hybrid scheme
 Reset frequency        DirectResetFreq ....    20
 Integral Threshold     Thresh          ....  2.500e-11 Eh
 Primitive CutOff       TCut            ....  2.500e-12 Eh

Convergence Tolerance:
 Convergence Check Mode ConvCheckMode   .... Total+1el-Energy
 Convergence forced     ConvForced      .... 0
 Energy Change          TolE            ....  1.000e-08 Eh
 1-El. energy change                    ....  1.000e-05 Eh
 Orbital Gradient       TolG            ....  1.000e-05
 Orbital Rotation angle TolX            ....  1.000e-05
 DIIS Error             TolErr          ....  5.000e-07

------------------------------
INITIAL GUESS: MODEL POTENTIAL
------------------------------
Loading Hartree-Fock densities                     ... done
Calculating cut-offs                               ... done
Initializing the effective Hamiltonian             ... done
Setting up the integral package (SHARK)            ... done
Starting the Coulomb interaction                   ... done (   0.1 sec)
Making the grid                                    ... done (   0.2 sec)
Mapping shells                                     ... done
Starting the XC term evaluation                    ... done (   0.1 sec)
  promolecular density results
     # of electrons  =    142.000177191
     EX              =   -114.326267987
     EC              =     -4.771726221
     EX+EC           =   -119.097994208
Transforming the Hamiltonian                       ... done (   0.0 sec)
Diagonalizing the Hamiltonian                      ... done (   0.0 sec)
Back transforming the eigenvectors                 ... done (   0.0 sec)
Now organizing SCF variables                       ... done
                      ------------------
                      INITIAL GUESS DONE (   0.3 sec)
                      ------------------
             **** ENERGY FILE WAS UPDATED (honokiol_2.en.tmp) ****
Finished Guess after   0.9 sec
Maximum memory used throughout the entire GUESS-calculation: 27.7 MB


           ************************************************************
           *        Program running with 14 parallel MPI-processes    *
           *              working on a common directory               *
           ************************************************************

-------------------------------------------------------------------------------------------
                                      ORCA LEAN-SCF
                              memory conserving SCF solver
-------------------------------------------------------------------------------------------

----------------------------------------D-I-I-S--------------------------------------------
Iteration    Energy (Eh)           Delta-E    RMSDP     MaxDP     DIISErr   Damp  Time(sec)
-------------------------------------------------------------------------------------------
               ***  Starting incremental Fock matrix formation  ***
    1    -845.5437925294559136     0.00e+00  2.55e-03  6.59e-02  2.06e-01  0.700   1.7
    2    -845.7559256915683363    -2.12e-01  1.80e-03  4.28e-02  9.50e-02  0.700   0.9
                               ***Turning on AO-DIIS***
    3    -845.8492591298945626    -9.33e-02  8.15e-04  1.67e-02  3.68e-02  0.700   0.9
    4    -845.9029967180708809    -5.37e-02  1.56e-03  3.44e-02  2.17e-02  0.000   0.8
    5    -846.0175165960263257    -1.15e-01  2.00e-04  5.78e-03  5.69e-03  0.000   0.9
                              *** Initializing SOSCF ***
---------------------------------------S-O-S-C-F--------------------------------------
Iteration    Energy (Eh)           Delta-E    RMSDP     MaxDP     MaxGrad    Time(sec)
--------------------------------------------------------------------------------------
    6    -846.0180860577015665    -5.69e-04  8.10e-05  2.58e-03  1.42e-03     0.8
               *** Restarting incremental Fock matrix formation ***
    7    -846.0181505245504923    -6.45e-05  5.21e-05  1.68e-03  1.50e-04     1.6
    8    -846.0181485178441108     2.01e-06  2.07e-05  6.06e-04  4.43e-04     1.1
    9    -846.0181551913219664    -6.67e-06  1.36e-05  3.67e-04  1.06e-04     1.0
   10    -846.0181550479892394     1.43e-07  6.25e-06  1.47e-04  7.23e-05     1.0
   11    -846.0181556467000519    -5.99e-07  2.87e-06  9.25e-05  2.03e-05     0.9
   12    -846.0181556195880148     2.71e-08  1.84e-06  5.22e-05  3.30e-05     0.8
   13    -846.0181556663073934    -4.67e-08  3.23e-07  1.08e-05  1.89e-06     0.8
                  *** Gradient check signals convergence ***

               *****************************************************
               *                     SUCCESS                       *
               *           SCF CONVERGED AFTER  13 CYCLES          *
               *****************************************************

Recomputing exchange energy using gridx3       ... done (    2.487 sec)
Old exchange energy                            :    -23.215276600 Eh
New exchange energy                            :    -23.215262492 Eh
Exchange energy change after final integration :      0.000014109 Eh
Total energy after final integration           :   -846.018141558 Eh
             **** ENERGY FILE WAS UPDATED (honokiol_2.en.tmp) ****

----------------
TOTAL SCF ENERGY
----------------

Total Energy       :       -846.01814155780232 Eh          -23021.32401 eV

Components:
Nuclear Repulsion  :       1415.47698181747637 Eh           38517.08685 eV
Electronic Energy  :      -2261.49513748378376 Eh          -61538.41124 eV
One Electron Energy:      -3958.32297571865183 Eh         -107711.44411 eV
Two Electron Energy:       1696.82783823486830 Eh           46173.03287 eV

Virial components:
Potential Energy   :      -1683.82731942689088 Eh          -45819.27077 eV
Kinetic Energy     :        837.80917786908844 Eh           22797.94676 eV
Virial Ratio       :          2.00979813053563

DFT components:
N(Alpha)           :       71.000065831441 electrons
N(Beta)            :       71.000065831441 electrons
N(Total)           :      142.000131662882 electrons
E(X)               :      -92.180422727670 Eh       
E(C)               :       -5.632142088958 Eh       
E(XC)              :      -97.812564816629 Eh       

---------------
SCF CONVERGENCE
---------------

  Last Energy change         ...    4.6719e-08  Tolerance :   1.0000e-08
  Last MAX-Density change    ...    1.0803e-05  Tolerance :   1.0000e-07
  Last RMS-Density change    ...    3.2296e-07  Tolerance :   5.0000e-09
  Last DIIS Error            ...    1.4216e-03  Tolerance :   5.0000e-07
  Last Orbital Gradient      ...    1.8866e-06  Tolerance :   1.0000e-05
  Last Orbital Rotation      ...    7.5287e-06  Tolerance :   1.0000e-05


----------------
ORBITAL ENERGIES
----------------

  NO   OCC          E(Eh)            E(eV) 
   0   2.0000     -19.157209      -521.2942 
   1   2.0000     -19.156533      -521.2758 
   2   2.0000     -10.240486      -278.6578 
   3   2.0000     -10.237511      -278.5768 
   4   2.0000     -10.185258      -277.1550 
   5   2.0000     -10.183865      -277.1171 
   6   2.0000     -10.183690      -277.1123 
   7   2.0000     -10.183118      -277.0967 
   8   2.0000     -10.181699      -277.0581 
   9   2.0000     -10.181101      -277.0418 
  10   2.0000     -10.180870      -277.0356 
  11   2.0000     -10.180503      -277.0256 
  12   2.0000     -10.180482      -277.0250 
  13   2.0000     -10.179884      -277.0087 
  14   2.0000     -10.178474      -276.9704 
  15   2.0000     -10.178423      -276.9690 
  16   2.0000     -10.178297      -276.9656 
  17   2.0000     -10.176503      -276.9167 
  18   2.0000     -10.173949      -276.8472 
  19   2.0000     -10.166911      -276.6557 
  20   2.0000      -1.042779       -28.3755 
  21   2.0000      -1.042300       -28.3624 
  22   2.0000      -0.858265       -23.3546 
  23   2.0000      -0.839723       -22.8500 
  24   2.0000      -0.794366       -21.6158 
  25   2.0000      -0.783152       -21.3106 
  26   2.0000      -0.760133       -20.6843 
  27   2.0000      -0.734316       -19.9818 
  28   2.0000      -0.732330       -19.9277 
  29   2.0000      -0.706838       -19.2340 
  30   2.0000      -0.666582       -18.1386 
  31   2.0000      -0.663569       -18.0566 
  32   2.0000      -0.627354       -17.0712 
  33   2.0000      -0.612946       -16.6791 
  34   2.0000      -0.595819       -16.2131 
  35   2.0000      -0.564822       -15.3696 
  36   2.0000      -0.545633       -14.8474 
  37   2.0000      -0.541802       -14.7432 
  38   2.0000      -0.540154       -14.6983 
  39   2.0000      -0.531599       -14.4655 
  40   2.0000      -0.494756       -13.4630 
  41   2.0000      -0.483851       -13.1663 
  42   2.0000      -0.475836       -12.9482 
  43   2.0000      -0.458109       -12.4658 
  44   2.0000      -0.448604       -12.2071 
  45   2.0000      -0.444581       -12.0977 
  46   2.0000      -0.434842       -11.8327 
  47   2.0000      -0.431663       -11.7462 
  48   2.0000      -0.424958       -11.5637 
  49   2.0000      -0.423954       -11.5364 
  50   2.0000      -0.406369       -11.0579 
  51   2.0000      -0.404630       -11.0105 
  52   2.0000      -0.402366       -10.9489 
  53   2.0000      -0.394589       -10.7373 
  54   2.0000      -0.385078       -10.4785 
  55   2.0000      -0.382063       -10.3965 
  56   2.0000      -0.370384       -10.0787 
  57   2.0000      -0.354584        -9.6487 
  58   2.0000      -0.353097        -9.6083 
  59   2.0000      -0.345888        -9.4121 
  60   2.0000      -0.341886        -9.3032 
  61   2.0000      -0.338217        -9.2033 
  62   2.0000      -0.326816        -8.8931 
  63   2.0000      -0.321653        -8.7526 
  64   2.0000      -0.320285        -8.7154 
  65   2.0000      -0.257415        -7.0046 
  66   2.0000      -0.251567        -6.8455 
  67   2.0000      -0.247805        -6.7431 
  68   2.0000      -0.242460        -6.5977 
  69   2.0000      -0.214919        -5.8483 
  70   2.0000      -0.213879        -5.8199 
  71   0.0000      -0.013381        -0.3641 
  72   0.0000      -0.002878        -0.0783 
  73   0.0000       0.005832         0.1587 
  74   0.0000       0.014267         0.3882 
  75   0.0000       0.028300         0.7701 
  76   0.0000       0.031446         0.8557 
  77   0.0000       0.049592         1.3495 
  78   0.0000       0.050015         1.3610 
  79   0.0000       0.072188         1.9643 
  80   0.0000       0.083196         2.2639 
  81   0.0000       0.087464         2.3800 
*Only the first 10 virtual orbitals were printed.

                    ********************************
                    * MULLIKEN POPULATION ANALYSIS *
                    ********************************

-----------------------
MULLIKEN ATOMIC CHARGES
-----------------------
   0 O :   -0.184217
   1 O :   -0.193232
   2 C :   -0.038891
   3 C :    0.032381
   4 C :   -0.077299
   5 C :   -0.025879
   6 C :   -0.009308
   7 C :   -0.020112
   8 C :    0.163916
   9 C :    0.024989
  10 C :    0.151837
  11 C :    0.188198
  12 C :    0.166735
  13 C :   -0.005294
  14 C :   -0.053526
  15 C :   -0.053768
  16 C :   -0.061934
  17 C :   -0.057673
  18 C :   -0.015784
  19 C :   -0.023481
  20 H :   -0.040610
  21 H :   -0.041310
  22 H :   -0.034269
  23 H :   -0.006438
  24 H :   -0.003918
  25 H :   -0.002641
  26 H :   -0.011832
  27 H :   -0.038140
  28 H :   -0.054411
  29 H :   -0.053538
  30 H :   -0.007283
  31 H :   -0.006520
  32 H :    0.175887
  33 H :    0.177090
  34 H :    0.009832
  35 H :    0.009500
  36 H :    0.014234
  37 H :    0.006710
Sum of atomic charges:    0.0000000

--------------------------------
MULLIKEN REDUCED ORBITAL CHARGES
--------------------------------
  0 O s       :     3.668024  s :     3.668024
      pz      :     1.629588  p :     4.502297
      px      :     1.540717
      py      :     1.331992
      dz2     :     0.001457  d :     0.013896
      dxz     :     0.003226
      dyz     :     0.001606
      dx2y2   :     0.002325
      dxy     :     0.005282

  1 O s       :     3.670838  s :     3.670838
      pz      :     1.377859  p :     4.508592
      px      :     1.415492
      py      :     1.715241
      dz2     :     0.003196  d :     0.013802
      dxz     :     0.001624
      dyz     :     0.002524
      dx2y2   :     0.003631
      dxy     :     0.002827

  2 C s       :     3.088139  s :     3.088139
      pz      :     1.019765  p :     2.907922
      px      :     0.891478
      py      :     0.996679
      dz2     :     0.005914  d :     0.042829
      dxz     :     0.007768
      dyz     :     0.006213
      dx2y2   :     0.011996
      dxy     :     0.010938

  3 C s       :     3.031155  s :     3.031155
      pz      :     0.971391  p :     2.892129
      px      :     0.930734
      py      :     0.990004
      dz2     :     0.010001  d :     0.044336
      dxz     :     0.011890
      dyz     :     0.006669
      dx2y2   :     0.008171
      dxy     :     0.007605

  4 C s       :     3.095907  s :     3.095907
      pz      :     0.995115  p :     2.939582
      px      :     0.932226
      py      :     1.012241
      dz2     :     0.009328  d :     0.041810
      dxz     :     0.010395
      dyz     :     0.006766
      dx2y2   :     0.006992
      dxy     :     0.008328

  5 C s       :     3.304031  s :     3.304031
      pz      :     0.824706  p :     2.686447
      px      :     0.910713
      py      :     0.951028
      dz2     :     0.006738  d :     0.035401
      dxz     :     0.009443
      dyz     :     0.004530
      dx2y2   :     0.007457
      dxy     :     0.007233

  6 C s       :     3.054792  s :     3.054792
      pz      :     0.985755  p :     2.910969
      px      :     0.958653
      py      :     0.966561
      dz2     :     0.005896  d :     0.043547
      dxz     :     0.008093
      dyz     :     0.006233
      dx2y2   :     0.011688
      dxy     :     0.011636

  7 C s       :     3.303394  s :     3.303394
      pz      :     0.926818  p :     2.681395
      px      :     0.913583
      py      :     0.840994
      dz2     :     0.003285  d :     0.035324
      dxz     :     0.007955
      dyz     :     0.004388
      dx2y2   :     0.010031
      dxy     :     0.009664

  8 C s       :     2.978645  s :     2.978645
      pz      :     0.992306  p :     2.781926
      px      :     0.817541
      py      :     0.972080
      dz2     :     0.009930  d :     0.075512
      dxz     :     0.015224
      dyz     :     0.010149
      dx2y2   :     0.018794
      dxy     :     0.021415

  9 C s       :     3.213154  s :     3.213154
      pz      :     0.922056  p :     2.726097
      px      :     0.874978
      py      :     0.929064
      dz2     :     0.007492  d :     0.035759
      dxz     :     0.009993
      dyz     :     0.005703
      dx2y2   :     0.005590
      dxy     :     0.006982

 10 C s       :     2.985499  s :     2.985499
      pz      :     1.034446  p :     2.787347
      px      :     0.782960
      py      :     0.969941
      dz2     :     0.013873  d :     0.075317
      dxz     :     0.019844
      dyz     :     0.008341
      dx2y2   :     0.017049
      dxy     :     0.016210

 11 C s       :     2.888240  s :     2.888240
      pz      :     0.936573  p :     2.886767
      px      :     0.961537
      py      :     0.988657
      dz2     :     0.004388  d :     0.036795
      dxz     :     0.009834
      dyz     :     0.009636
      dx2y2   :     0.003343
      dxy     :     0.009594

 12 C s       :     2.906478  s :     2.906478
      pz      :     0.971565  p :     2.889720
      px      :     0.961053
      py      :     0.957102
      dz2     :     0.007976  d :     0.037067
      dxz     :     0.004684
      dyz     :     0.008560
      dx2y2   :     0.005468
      dxy     :     0.010378

 13 C s       :     3.213034  s :     3.213034
      pz      :     0.973510  p :     2.756819
      px      :     0.807878
      py      :     0.975432
      dz2     :     0.005254  d :     0.035441
      dxz     :     0.005572
      dyz     :     0.005702
      dx2y2   :     0.010245
      dxy     :     0.008668

 14 C s       :     3.232651  s :     3.232651
      pz      :     0.848661  p :     2.787547
      px      :     0.927247
      py      :     1.011639
      dz2     :     0.005970  d :     0.033328
      dxz     :     0.009845
      dyz     :     0.004077
      dx2y2   :     0.006400
      dxy     :     0.007037

 15 C s       :     3.233083  s :     3.233083
      pz      :     0.981582  p :     2.787356
      px      :     0.941099
      py      :     0.864675
      dz2     :     0.003165  d :     0.033328
      dxz     :     0.007227
      dyz     :     0.004465
      dx2y2   :     0.010205
      dxy     :     0.008266

 16 C s       :     3.147828  s :     3.147828
      pz      :     0.944913  p :     2.877950
      px      :     0.968198
      py      :     0.964839
      dz2     :     0.004528  d :     0.036156
      dxz     :     0.011318
      dyz     :     0.004133
      dx2y2   :     0.006140
      dxy     :     0.010036

 17 C s       :     3.146846  s :     3.146846
      pz      :     0.941304  p :     2.874676
      px      :     0.963514
      py      :     0.969858
      dz2     :     0.007933  d :     0.036152
      dxz     :     0.002621
      dyz     :     0.011379
      dx2y2   :     0.005883
      dxy     :     0.008335

 18 C s       :     3.094228  s :     3.094228
      pz      :     0.940449  p :     2.894779
      px      :     0.979596
      py      :     0.974734
      dz2     :     0.002377  d :     0.026777
      dxz     :     0.009331
      dyz     :     0.002392
      dx2y2   :     0.004892
      dxy     :     0.007784

 19 C s       :     3.097301  s :     3.097301
      pz      :     0.916694  p :     2.899387
      px      :     1.010069
      py      :     0.972625
      dz2     :     0.005036  d :     0.026792
      dxz     :     0.001234
      dyz     :     0.010655
      dx2y2   :     0.004339
      dxy     :     0.005528

 20 H s       :     1.017500  s :     1.017500
      pz      :     0.012183  p :     0.023110
      px      :     0.005141
      py      :     0.005786

 21 H s       :     1.018249  s :     1.018249
      pz      :     0.007684  p :     0.023061
      px      :     0.003967
      py      :     0.011409

 22 H s       :     1.011142  s :     1.011142
      pz      :     0.007744  p :     0.023127
      px      :     0.007340
      py      :     0.008043

 23 H s       :     0.983161  s :     0.983161
      pz      :     0.006726  p :     0.023278
      px      :     0.007593
      py      :     0.008958

 24 H s       :     0.981041  s :     0.981041
      pz      :     0.007252  p :     0.022877
      px      :     0.008132
      py      :     0.007494

 25 H s       :     0.979459  s :     0.979459
      pz      :     0.005086  p :     0.023182
      px      :     0.011237
      py      :     0.006859

 26 H s       :     0.989110  s :     0.989110
      pz      :     0.012270  p :     0.022722
      px      :     0.004923
      py      :     0.005529

 27 H s       :     1.015000  s :     1.015000
      pz      :     0.005303  p :     0.023140
      px      :     0.013517
      py      :     0.004320

 28 H s       :     1.031075  s :     1.031075
      pz      :     0.012159  p :     0.023336
      px      :     0.004818
      py      :     0.006360

 29 H s       :     1.030205  s :     1.030205
      pz      :     0.008068  p :     0.023333
      px      :     0.004243
      py      :     0.011022

 30 H s       :     0.984375  s :     0.984375
      pz      :     0.008901  p :     0.022908
      px      :     0.006760
      py      :     0.007247

 31 H s       :     0.983636  s :     0.983636
      pz      :     0.012874  p :     0.022884
      px      :     0.005640
      py      :     0.004369

 32 H s       :     0.755908  s :     0.755908
      pz      :     0.023186  p :     0.068204
      px      :     0.017194
      py      :     0.027824

 33 H s       :     0.754803  s :     0.754803
      pz      :     0.032318  p :     0.068107
      px      :     0.015049
      py      :     0.020740

 34 H s       :     0.966301  s :     0.966301
      pz      :     0.009663  p :     0.023867
      px      :     0.006301
      py      :     0.007903

 35 H s       :     0.966638  s :     0.966638
      pz      :     0.009003  p :     0.023862
      px      :     0.007617
      py      :     0.007241

 36 H s       :     0.961901  s :     0.961901
      pz      :     0.009454  p :     0.023865
      px      :     0.005305
      py      :     0.009106

 37 H s       :     0.969367  s :     0.969367
      pz      :     0.012713  p :     0.023923
      px      :     0.005943
      py      :     0.005267



                     *******************************
                     * LOEWDIN POPULATION ANALYSIS *
                     *******************************

----------------------
LOEWDIN ATOMIC CHARGES
----------------------
   0 O :   -0.059288
   1 O :   -0.059656
   2 C :   -0.047193
   3 C :   -0.033309
   4 C :   -0.046065
   5 C :   -0.004471
   6 C :   -0.038957
   7 C :   -0.003950
   8 C :    0.049892
   9 C :   -0.009827
  10 C :    0.048306
  11 C :   -0.020240
  12 C :   -0.022427
  13 C :   -0.023652
  14 C :   -0.072756
  15 C :   -0.073054
  16 C :   -0.015222
  17 C :   -0.015108
  18 C :   -0.059947
  19 C :   -0.063778
  20 H :    0.026576
  21 H :    0.027400
  22 H :    0.026053
  23 H :    0.031764
  24 H :    0.030822
  25 H :    0.031052
  26 H :    0.028479
  27 H :    0.022316
  28 H :    0.019040
  29 H :    0.019132
  30 H :    0.020835
  31 H :    0.021270
  32 H :    0.094620
  33 H :    0.095440
  34 H :    0.018969
  35 H :    0.018998
  36 H :    0.020859
  37 H :    0.017075

-------------------------------
LOEWDIN REDUCED ORBITAL CHARGES
-------------------------------
  0 O s       :     3.417696  s :     3.417696
      pz      :     1.636396  p :     4.614911
      px      :     1.591901
      py      :     1.386614
      dz2     :     0.002311  d :     0.026681
      dxz     :     0.005183
      dyz     :     0.004658
      dx2y2   :     0.004072
      dxy     :     0.010456

  1 O s       :     3.416356  s :     3.416356
      pz      :     1.446974  p :     4.616704
      px      :     1.453065
      py      :     1.716664
      dz2     :     0.006896  d :     0.026596
      dxz     :     0.003502
      dyz     :     0.005197
      dx2y2   :     0.006500
      dxy     :     0.004501

  2 C s       :     2.835791  s :     2.835791
      pz      :     1.011350  p :     3.098727
      px      :     1.044516
      py      :     1.042860
      dz2     :     0.013262  d :     0.112676
      dxz     :     0.019518
      dyz     :     0.016760
      dx2y2   :     0.032667
      dxy     :     0.030469

  3 C s       :     2.833007  s :     2.833007
      pz      :     1.051518  p :     3.085095
      px      :     1.025922
      py      :     1.007656
      dz2     :     0.025786  d :     0.115207
      dxz     :     0.031898
      dyz     :     0.017785
      dx2y2   :     0.020496
      dxy     :     0.019242

  4 C s       :     2.847582  s :     2.847582
      pz      :     1.028340  p :     3.091476
      px      :     1.052562
      py      :     1.010574
      dz2     :     0.023876  d :     0.107007
      dxz     :     0.029115
      dyz     :     0.016676
      dx2y2   :     0.017779
      dxy     :     0.019561

  5 C s       :     2.856171  s :     2.856171
      pz      :     1.019587  p :     3.055118
      px      :     1.035442
      py      :     1.000090
      dz2     :     0.017836  d :     0.093182
[...]
      dyz     :     0.006121
      dx2y2   :     0.026967
      dxy     :     0.033612

 17 C s       :     2.883362  s :     2.883362
      pz      :     1.073320  p :     3.046128
      px      :     0.935099
      py      :     1.037709
      dz2     :     0.026986  d :     0.088989
      dxz     :     0.007071
      dyz     :     0.029824
      dx2y2   :     0.014154
      dxy     :     0.010954

 18 C s       :     2.886643  s :     2.886643
      pz      :     1.005304  p :     3.107268
      px      :     1.066973
      py      :     1.034990
      dz2     :     0.005646  d :     0.069546
      dxz     :     0.011147
      dyz     :     0.003221
      dx2y2   :     0.020189
      dxy     :     0.029344

 19 C s       :     2.887633  s :     2.887633
      pz      :     1.058743  p :     3.110781
      px      :     1.002075
      py      :     1.049963
      dz2     :     0.025734  d :     0.069442
      dxz     :     0.006020
      dyz     :     0.022391
      dx2y2   :     0.011069
      dxy     :     0.004227

 20 H s       :     0.907773  s :     0.907773
      pz      :     0.041257  p :     0.068957
      px      :     0.012207
      py      :     0.015493

 21 H s       :     0.904972  s :     0.904972
      pz      :     0.026761  p :     0.069047
      px      :     0.011457
      py      :     0.030829

 22 H s       :     0.906851  s :     0.906851
      pz      :     0.026077  p :     0.067796
      px      :     0.027070
      py      :     0.014648

 23 H s       :     0.904664  s :     0.904664
      pz      :     0.035159  p :     0.064295
      px      :     0.016664
      py      :     0.012473

 24 H s       :     0.903655  s :     0.903655
      pz      :     0.013125  p :     0.065246
      px      :     0.019906
      py      :     0.032215

 25 H s       :     0.904105  s :     0.904105
      pz      :     0.016396  p :     0.064154
      px      :     0.031987
      py      :     0.015771

 26 H s       :     0.903847  s :     0.903847
      pz      :     0.038486  p :     0.063968
      px      :     0.011943
      py      :     0.013538

 27 H s       :     0.909923  s :     0.909923
      pz      :     0.014698  p :     0.066789
      px      :     0.036717
      py      :     0.015374

 28 H s       :     0.911433  s :     0.911433
      pz      :     0.038775  p :     0.067683
      px      :     0.012027
      py      :     0.016882

 29 H s       :     0.911264  s :     0.911264
      pz      :     0.027014  p :     0.067665
      px      :     0.011589
      py      :     0.029061

 30 H s       :     0.911768  s :     0.911768
      pz      :     0.015360  p :     0.065972
      px      :     0.015473
      py      :     0.035139

 31 H s       :     0.908953  s :     0.908953
      pz      :     0.037151  p :     0.065954
      px      :     0.013327
      py      :     0.015476

 32 H s       :     0.733508  s :     0.733508
      pz      :     0.062497  p :     0.175952
      px      :     0.043400
      py      :     0.070055

 33 H s       :     0.732799  s :     0.732799
      pz      :     0.092511  p :     0.175898
      px      :     0.035640
      py      :     0.047746

 34 H s       :     0.912423  s :     0.912423
      pz      :     0.014486  p :     0.066798
      px      :     0.019562
      py      :     0.032750

 35 H s       :     0.912896  s :     0.912896
      pz      :     0.016915  p :     0.066903
      px      :     0.015744
      py      :     0.034244

 36 H s       :     0.909384  s :     0.909384
      pz      :     0.011366  p :     0.066988
      px      :     0.014850
      py      :     0.040772

 37 H s       :     0.914144  s :     0.914144
      pz      :     0.037772  p :     0.066824
      px      :     0.014820
      py      :     0.014232



                      *****************************
                      * MAYER POPULATION ANALYSIS *
                      *****************************

  NA   - Mulliken gross atomic population
  ZA   - Total nuclear charge
  QA   - Mulliken gross atomic charge
  VA   - Mayer's total valence
  BVA  - Mayer's bonded valence
  FA   - Mayer's free valence

  ATOM       NA         ZA         QA         VA         BVA        FA
  0 O      8.1836     8.0000    -0.1836     2.2551     2.2551     0.0000
  1 O      8.1860     8.0000    -0.1860     2.2558     2.2558     0.0000
  2 C      5.9460     6.0000     0.0540     3.7607     3.7607     0.0000
  3 C      5.9194     6.0000     0.0806     3.7499     3.7499     0.0000
  4 C      6.0883     6.0000    -0.0883     3.9534     3.9534    -0.0000
  5 C      6.0443     6.0000    -0.0443     3.8563     3.8563     0.0000
  6 C      6.0256     6.0000    -0.0256     3.9065     3.9065    -0.0000
  7 C      6.0647     6.0000    -0.0647     3.8271     3.8271    -0.0000
  8 C      5.8838     6.0000     0.1162     4.0106     4.0106     0.0000
  9 C      6.0235     6.0000    -0.0235     3.8560     3.8560    -0.0000
 10 C      5.8594     6.0000     0.1406     4.0103     4.0103    -0.0000
 11 C      5.8014     6.0000     0.1986     3.8853     3.8853     0.0000
 12 C      5.8103     6.0000     0.1897     3.8485     3.8485     0.0000
 13 C      6.0215     6.0000    -0.0215     3.8500     3.8500     0.0000
 14 C      6.0489     6.0000    -0.0489     3.7522     3.7522    -0.0000
 15 C      6.0476     6.0000    -0.0476     3.7543     3.7543    -0.0000
 16 C      6.0672     6.0000    -0.0672     4.1116     4.1116     0.0000
 17 C      6.0799     6.0000    -0.0799     4.1104     4.1104     0.0000
 18 C      6.0187     6.0000    -0.0187     3.9544     3.9544     0.0000
 19 C      6.0304     6.0000    -0.0304     3.9372     3.9372    -0.0000
 20 H      1.0373     1.0000    -0.0373     1.0165     1.0165     0.0000
 21 H      1.0348     1.0000    -0.0348     1.0125     1.0125     0.0000
 22 H      1.0289     1.0000    -0.0289     0.9883     0.9883    -0.0000
 23 H      1.0077     1.0000    -0.0077     0.9834     0.9834    -0.0000
 24 H      1.0013     1.0000    -0.0013     0.9972     0.9972     0.0000
 25 H      1.0059     1.0000    -0.0059     0.9864     0.9864     0.0000
 26 H      0.9960     1.0000     0.0040     0.9895     0.9895     0.0000
 27 H      1.0343     1.0000    -0.0343     0.9859     0.9859     0.0000
 28 H      1.0506     1.0000    -0.0506     0.9868     0.9868    -0.0000
 29 H      1.0488     1.0000    -0.0488     0.9871     0.9871    -0.0000
 30 H      1.0049     1.0000    -0.0049     0.9825     0.9825     0.0000
 31 H      1.0001     1.0000    -0.0001     0.9824     0.9824     0.0000
 32 H      0.8271     1.0000     0.1729     1.0136     1.0136     0.0000
 33 H      0.8264     1.0000     0.1736     1.0126     1.0126    -0.0000
 34 H      0.9874     1.0000     0.0126     0.9730     0.9730    -0.0000
 35 H      0.9888     1.0000     0.0112     0.9889     0.9889    -0.0000
 36 H      0.9802     1.0000     0.0198     0.9743     0.9743    -0.0000
 37 H      0.9892     1.0000     0.0108     0.9853     0.9853     0.0000

  Mayer bond orders larger than 0.100000
B(  0-O ,  8-C ) :   1.2012 B(  0-O , 32-H ) :   0.9599 B(  1-O , 10-C ) :   1.2109 
B(  1-O , 33-H ) :   0.9608 B(  2-C ,  3-C ) :   0.9588 B(  2-C ,  7-C ) :   1.3871 
B(  2-C ,  8-C ) :   1.3463 B(  3-C ,  5-C ) :   1.3311 B(  3-C ,  9-C ) :   1.3853 
B(  4-C ,  5-C ) :   1.4081 B(  4-C , 10-C ) :   1.3494 B(  4-C , 11-C ) :   1.0451 
B(  5-C , 20-H ) :   0.9844 B(  6-C ,  7-C ) :   1.3384 B(  6-C , 12-C ) :   1.0271 
B(  6-C , 13-C ) :   1.3924 B(  7-C , 21-H ) :   0.9844 B(  8-C , 15-C ) :   1.3310 
B(  9-C , 14-C ) :   1.3511 B(  9-C , 22-H ) :   0.9800 B( 10-C , 14-C ) :   1.3284 
B( 11-C , 16-C ) :   1.0538 B( 11-C , 23-H ) :   0.9008 B( 11-C , 24-H ) :   0.9124 
B( 12-C , 17-C ) :   1.0516 B( 12-C , 25-H ) :   0.9067 B( 12-C , 26-H ) :   0.9166 
B( 13-C , 15-C ) :   1.3468 B( 13-C , 27-H ) :   0.9817 B( 14-C , 28-H ) :   0.9784 
B( 15-C , 29-H ) :   0.9752 B( 16-C , 18-C ) :   2.0193 B( 16-C , 30-H ) :   0.9561 
B( 17-C , 19-C ) :   1.9950 B( 17-C , 31-H ) :   0.9634 B( 18-C , 34-H ) :   0.9477 
B( 18-C , 35-H ) :   0.9503 B( 19-C , 36-H ) :   0.9485 B( 19-C , 37-H ) :   0.9522 


Environment variable NBOEXE for nbo6.exe or nbo5.exe not set! Skipping NBO-Analysis

-------
TIMINGS
-------

Total SCF time: 0 days 0 hours 0 min 8 sec 

Total time                  ....       8.397 sec
Sum of individual times     ....       8.348 sec  ( 99.4%)

SCF preparation             ....       0.629 sec  (  7.5%)
Fock matrix formation       ....       7.375 sec  ( 87.8%)
  Startup                   ....       0.008 sec  (  0.1% of F)
  Split-RI-J                ....       0.559 sec  (  7.6% of F)
  Chain of spheres X        ....       6.112 sec  ( 82.9% of F)
  XC integration            ....       0.660 sec  (  8.9% of F)
    XC Preparation          ....       0.000 sec  (  0.0% of XC)
    Basis function eval.    ....       0.223 sec  ( 33.8% of XC)
    Density eval.           ....       0.128 sec  ( 19.4% of XC)
    XC-Functional eval.     ....       0.042 sec  (  6.4% of XC)
    XC-Potential eval.      ....       0.158 sec  ( 23.9% of XC)
Diagonalization             ....       0.000 sec  (  0.0%)
Density matrix formation    ....       0.019 sec  (  0.2%)
Total Energy calculation    ....       0.016 sec  (  0.2%)
Population analysis         ....       0.148 sec  (  1.8%)
Orbital Transformation      ....       0.027 sec  (  0.3%)
Orbital Orthonormalization  ....       0.000 sec  (  0.0%)
DIIS solution               ....       0.040 sec  (  0.5%)
SOSCF solution              ....       0.094 sec  (  1.1%)
Finished LeanSCF after   8.5 sec

Maximum memory used throughout the entire LEANSCF-calculation: 50.0 MB


-------------------------------------------------------------------------------
                          DFT DISPERSION CORRECTION                            
                                                                               
                              DFTD3 V3.1  Rev 1                                
                          USING Becke-Johnson damping                          
-------------------------------------------------------------------------------
The B3LYP functional is recognized
Active option DFTDOPT                   ...         4   

molecular C6(AA) [au] = 16065.838237 


            DFT-D V3
 parameters
 s6 scaling factor         :     1.0000 
 a1 scaling factor         :     0.3981 
 s8 scaling factor         :     1.9889 
 a2 scaling factor         :     4.4211 
 ad hoc parameters k1-k3   :    16.0000     1.3333    -4.0000 

 Edisp/kcal,au: -49.433468867322  -0.078777238651 
 E6   /kcal   : -23.278984606 
 E8   /kcal   : -26.154484262 
 % E8         :  52.908454254 

-------------------------   ----------------
Dispersion correction           -0.078777239
-------------------------   ----------------


-------------------------   --------------------
FINAL SINGLE POINT ENERGY      -846.109298338044
-------------------------   --------------------

                                *** OPTIMIZATION RUN DONE ***



           ************************************************************
           *        Program running with 14 parallel MPI-processes    *
           *              working on a common directory               *
           ************************************************************

------------------------------------------------------------------------------
                              ORCA PROPERTY CALCULATIONS
------------------------------------------------------------------------------

GBWName                                 ... honokiol_2.gbw
Number of atoms                         ...     38
Number of basis functions               ...    370
Max core memory                         ...   1024 MB

Electric properties:
Dipole moment                           ... YES
Quadrupole moment                       ...  NO
Static polarizability (Dipole/Dipole)   ...  NO
Static polarizability (Dipole/Quad.)    ...  NO
Static polarizability (Quad./Quad.)     ...  NO
Static polarizability (Velocity)        ...  NO

Atomic electric properties:
Dipole moment                           ...  NO
Quadrupole moment                       ...  NO
Static polarizability                   ...  NO

Choice of electric origin               ... Center of mass
Position of electric origin             ...    -0.056532    -0.198813    -0.222834

General magnetic properties:
Magnetizability                         ...  NO

EPR properties:
g-Tensor (aka g-matrix)                 ...  NO
Zero-Field splitting spin-orbit         ...  NO
Zero-field splitting spin-spin          ...  NO
Hyperfine couplings                     ...  NO (   0 nuclei)
Quadrupole couplings                    ...  NO (   0 nuclei)
Contact density                         ...  NO (   0 nuclei)

NMR properties:
Chemical shifts                         ...  NO (   0 nuclei)
Spin-rotation constants                 ...  NO (   0 nuclei)
Spin-spin couplings                     ...  NO (   0 nuclei,    0 pairs)

Choice of magnetic origin               ... GIAO
Position of magnetic origin             ...     0.000000     0.000000     0.000000

Properties with geometric perturbations:
SCF Hessian                             ...  NO
IR spectrum                             ...  NO
VCD spectrum                            ...  NO
X-ray spectroscopy properties:
SCF XES/XAS/RIXS spectra                ...  NO


-------------
DIPOLE MOMENT
-------------

Method             : SCF
Type of density    : Electron Density
Multiplicity       :   1
Irrep              :   0
Energy             :  -846.0305210993930132 Eh
Relativity type    : 
Basis              : AO
                                X                 Y                 Z
Electronic contribution:     -2.210384239       3.908117146      -0.741388856
Nuclear contribution   :      2.570046078      -3.583179793       0.912309161
                        -----------------------------------------
Total Dipole Moment    :      0.359661839       0.324937352       0.170920304
                        -----------------------------------------
Magnitude (a.u.)       :      0.513959796
Magnitude (Debye)      :      1.306381981



--------------------
Rotational spectrum 
--------------------
 
Rotational constants in cm-1:             0.021397             0.005544             0.004656 
Rotational constants in MHz :           641.453025           166.208995           139.579891 

Dipole components along the rotational axes: 
x,y,z [a.u.] :     0.369353     0.139290     0.329137 
x,y,z [Debye]:     0.938822     0.354047     0.836599 

 

Dipole moment calculation done in   0.1 sec 

Maximum memory used throughout the entire PROP-calculation: 24.1 MB

--------------------------------
SUGGESTED CITATIONS FOR THIS RUN
--------------------------------

Below you find a list of papers that are relevant to this ORCA run
We neither can nor want to force you to cite these papers, but we appreciate if you do
You receive ORCA, which is the product of decades of hard work by many enthusiastic individuals, for free
The only thing we kindly ask in return is that you cite our papers,
We deeply appreciate it, if you show your appreciation for ORCA by not just citing the generic ORCA reference.

Please note that relegating all ORCA citations to the supporting information does *not* help us.
SI sections are not indexed - citations you put there will not count into any citation statistics
But we need these citations in order to attract the funding resources that allow us to do what we are doing

Therefore, if you are a happy ORCA user, please consider citing a few of the papers listed below in the main body of your paper

In addition to the list printed below, the program has created the file honokiol_2.bibtex that contains the list in bibtex format
You can import this file easily into all common literature databanks and citation aid programs


List of essential papers. We consider these as the minimum necessary citations

  1. Neese,F.
     Software update: the ORCA program system, version 5.0
     WIRES Comput. Molec. Sci., 2022 12(1)e1606
     doi.org/10.1002/wcms.1606

List of papers to cite with high priority. The work reported in these papers was absolutely
necessary for this run to complete.
Our perspective: the developers of density functionals and basis sets usually get cited in chemistry papers
Good! But without the algorithms to do something with them, the functionals or basis sets would not do anything.
Hence, in our opinion, the algorithm design and method developments papers are equally worthy of getting cited

  1. Neese,F.
     An improvement of the resolution of the identity approximation for the formation of the Coulomb matrix
     J. Comp. Chem., 2003 24(14)1740-1747
     doi.org/10.1002/jcc.10318
  2. Neese,F.; Wennmohs,F.; Hansen,A.; Becker,U.
     Efficient, approximate and parallel Hartree-Fock and hybrid DFT calculations. A 'chain-of-spheres' algorithm for the Hartree-Fock exchange
     Chem. Phys., 2009 356(1-3)98-109
     doi.org/10.1016/j.chemphys.2008.10.036
  3. Helmich-Paris,B.; de Souza,B.; Neese,F.; Izsák,R.
     An improved chain of spheres for exchange algorithm
     J. Chem. Phys., 2021 155 104109
     doi.org/doi: 10.1063/5.0058766.
  4. Neese,F.
     The SHARK Integral Generation and Digestion System
     J. Comp. Chem., 2022  1-16
     doi.org/10.1002/jcc.26942
  5. Grimme,S.; Antony,J.; Ehrlich,S.; Krieg,H.
     A consistent and accurate ab initio parametrization of density functional dispersion correction (DFT-D) for the 94 elements H-Pu
     J. Chem. Phys., 2010 132 154104
     doi.org/10.1063/1.3382344
  6. Grimme,S.; Ehrlich,S.; Goerigk,L.
     Effect of the damping function in dispersion corrected density functional theory
     J. Comput. Chem., 2011 32(7)1456-1465
     doi.org/10.1002/jcc.21759

List of suggested additional citations. These are papers that are important in the 'surrounding' of 
of this run, or papers that preceded the highly important papers. If you like your results we are grateful for a citation.

  1. Izsak,R.; Neese,F.
     An overlap fitted chain of spheres exchange method
     J. Chem. Phys., 2011 135 144105
     doi.org/10.1063/1.3646921
  2. Izsak,R.; Hansen,A.; Neese,F.
     The resolution of identity and chain of spheres approximations for the LPNO-CCSD singles Fock term
     Molec. Phys., 2012 110 2413-2417
     doi.org/10.1080/00268976.2012.687466
  3. Neese,F.
     The ORCA program system
     WIRES Comput. Molec. Sci., 2012 2(1)73-78
     doi.org/10.1002/wcms.81
  4. Izsak,R.; Neese,F.; Klopper,W.
     Robust fitting techniques in the chain of spheres approximation to the Fock exchange: The role of the complementary space
     J. Chem. Phys., 2013 139 
     doi.org/10.1063/1.4819264
  5. Neese,F.
     Software update: the ORCA program system, version 4.0
     WIRES Comput. Molec. Sci., 2018 8(1)1-6
     doi.org/10.1002/wcms.1327
  6. Neese,F.; Wennmohs,F.; Becker,U.; Riplinger,C.
     The ORCA quantum chemistry program package
     J. Chem. Phys., 2020 152 Art. No. L224108
     doi.org/10.1063/5.0004608

List of optional additional citations

  1. Neese,F.
     Approximate second-order SCF convergence for spin unrestricted wavefunctions
     Chem. Phys. Lett., 2000 325(1-3)93-98
     doi.org/10.1016/s0009-2614(00)00662-x

Timings for individual modules:

Sum of individual times          ...      829.571 sec (=  13.826 min)
Startup calculation              ...       80.246 sec (=   1.337 min)   9.7 %
SCF iterations                   ...      475.032 sec (=   7.917 min)  57.3 %
Property calculations            ...        0.724 sec (=   0.012 min)   0.1 %
SCF Gradient evaluation          ...      273.060 sec (=   4.551 min)  32.9 %
Geometry relaxation              ...        0.510 sec (=   0.008 min)   0.1 %
                             ****ORCA TERMINATED NORMALLY****
TOTAL RUN TIME: 0 days 0 hours 14 minutes 13 seconds 755 msec
