
                                 *****************
                                 * O   R   C   A *
                                 *****************

                                            #,                                       
                                            ###                                      
                                            ####                                     
                                            #####                                    
                                            ######                                   
                                           ########,                                 
                                     ,,################,,,,,                         
                               ,,#################################,,                 
                          ,,##########################################,,             
                       ,#########################################, ''#####,          
                    ,#############################################,,   '####,        
                  ,##################################################,,,,####,       
                ,###########''''           ''''###############################       
              ,#####''   ,,,,##########,,,,          '''####'''          '####       
            ,##' ,,,,###########################,,,                        '##       
           ' ,,###''''                  '''############,,,                           
         ,,##''                                '''############,,,,        ,,,,,,###''
      ,#''                                            '''#######################'''  
     '                                                          ''''####''''         
             ,#######,   #######,   ,#######,      ##                                
            ,#'     '#,  ##    ##  ,#'     '#,    #''#        ,####,   ,####,        
            ##       ##  ##   ,#'  ##            #'  '#       #'       #'  '#        
            ##       ##  #######   ##           ,######,      #####,   #    #        
            '#,     ,#'  ##    ##  '#,     ,#' ,#      #,     #,   #   #,  ,#        
             '#######'   ##     ##  '#######'  #'      '#     '####' # '####'        



                #########################################################
                #                        -***-                          #
                #          Department of theory and spectroscopy        #
                #                                                       #
                #                      Frank Neese                      #
                #                                                       #
                #     Directorship, Architecture, Infrastructure        #
                #                    SHARK, DRIVERS                     #
                #        Core code/Algorithms in most modules           #
                #                                                       #
                #        Max Planck Institute fuer Kohlenforschung      #
                #                Kaiser Wilhelm Platz 1                 #
                #                 D-45470 Muelheim/Ruhr                 #
                #                      Germany                          #
                #                                                       #
                #                  All rights reserved                  #
                #                        -***-                          #
                #########################################################


                         Program Version 6.0.1  -  RELEASE   -


 With contributions from (in alphabetic order):
[Max-Planck-Institut fuer Kohlenforschung]                               
  Daniel Aravena         : Magnetic Suceptibility                        
  Michael Atanasov       : Ab Initio Ligand Field Theory (pilot matlab implementation)
  Alexander A. Auer      : GIAO ZORA, VPT2 properties, NMR spectrum      
  Ute Becker             : All parallelization in ORCA, NUMFREQ, NUMCALC 
  Giovanni Bistoni       : ED, misc. LED, open-shell LED, HFLD           
  Martin Brehm           : Molecular dynamics                            
  Dmytro Bykov           : pre 5.0 version of the SCF Hessian            
  Marcos Casanova-Páez   : Triplet and SCS-CIS(D). UHF-(DLPNO)-IP/EA/STEOM-CCSD. UHF-CVS-IP/STEOM-CCSD   
  Vijay G. Chilkuri      : MRCI spin determinant printing, contributions to CSF-ICE 
  Pauline Colinet        : FMM embedding                                 
  Dipayan Datta          : RHF DLPNO-CCSD density                        
  Achintya Kumar Dutta   : EOM-CC, STEOM-CC                              
  Nicolas Foglia         : Exact transition moments, OPA infrastructure, MCD improvements    
  Dmitry Ganyushin       : Spin-Orbit,Spin-Spin,Magnetic field MRCI      
  Miquel Garcia-Rates    : C-PCM and meta-GGA Hessian, CCSD/C-PCM, Gaussian charge scheme 
  Tiago L. C. Gouveia    : GS-ROHF, GS-ROCIS                             
  Yang Guo               : DLPNO-NEVPT2, F12-NEVPT2, CIM, IAO-localization        
  Andreas Hansen         : Spin unrestricted coupled pair/coupled cluster methods 
  Ingolf Harden          : AUTO-CI MPn and infrastructure                
  Benjamin Helmich-Paris : MC-RPA, TRAH-(SCF,CASSCF), AVAS, COSX integrals, SCF dyn. polar. 
  Lee Huntington         : MR-EOM, pCC                                   
  Robert Izsak           : Overlap fitted RIJCOSX, COSX-SCS-MP3, EOM     
  Riya Kayal             : Wick's Theorem for AUTO-CI, AUTO-CI UHF-CCSDT 
  Emily Kempfer          : AUTO-CI, RHF CISDT and CCSDT                  
  Christian Kollmar      : KDIIS, OOCD, Brueckner-CCSD(T), CCSD density, CASPT2, CASPT2-K, improved NEVPT2 
  Axel Koslowski         : Symmetry handling                             
  Simone Kossmann        : meta-GGA functionals, TD-DFT gradient, OOMP2, (MP2 Hessian; deprecated post 5.0) 
  Lucas Lang             : DCDCAS                                        
  Marvin Lechner         : AUTO-CI (C++ implementation), FIC-MRCC        
  Spencer Leger          : CASSCF response                               
  Dagmar Lenk            : GEPOL surface, SMD, ORCA-2-JSON               
  Dimitrios Liakos       : Extrapolation schemes; Compound Job, initial MDCI parallelization 
  Dimitrios Manganas     : Further ROCIS development; embedding schemes. LFT, Crystal Embedding 
  Dimitrios Pantazis     : SARC Basis sets                               
  Anastasios Papadopoulos: AUTO-CI, single reference methods and gradients 
  Taras Petrenko         : pre 6.0 DFT Hessian and TD-DFT gradient, (ASA, deprecated), ECA, 1-Electron XAS/XES, NRVS 
  Peter Pinski           : DLPNO-MP2, DLPNO-MP2 Gradient                 
  Christoph Reimann      : Effective Core Potentials                     
  Marius Retegan         : Local ZFS, SOC                                
  Christoph Riplinger    : Optimizer, TS searches, QM/MM, DLPNO-CCSD(T), (RO)-DLPNO pert. Triples 
  Michael Roemelt        : Original ROCIS implementation                 
  Masaaki Saitow         : Open-shell DLPNO-CCSD energy and density      
  Barbara Sandhoefer     : DKH picture change effects                    
  Kantharuban Sivalingam : CASSCF convergence/infrastructure, NEVPT2 and variants, FIC-MRCI 
  Bernardo de Souza      : ESD, SOC TD-DFT                               
  Georgi L. Stoychev     : AutoAux, RI-MP2 NMR, DLPNO-MP2 response, X2C  
  Van Anh Tran           : RI-MP2 g-tensors                              
  Willem Van den Heuvel  : Paramagnetic NMR                              
  Zikuan Wang            : NOTCH, Electric field optimization            
  Frank Wennmohs         : Technical directorship and infrastructure     
  Hang Xu                : AUTO-CI-Response properties                   
                                                                         
[FACCTs GmbH]                                                            
  Markus Bursch, Miquel Garcia-Rates, Christoph Riplinger, Bernardo de Souza, Georgi L. Stoychev 
                                                                 
  APM, Basis sets (HGBS, AHGBS, def-TZVP (Ac-Lr), def2-XVPD (La-Lu)), CI-OPT, improved COSX, DLPNO-Multilevel,           
  DOCKER, DRACO, updates on ESD, GOAT, IRC, LR-CPCM, MBIS, meta-GGA TD-DFT gradient, ML-optimized integration grids, 
  MM, NACMEs, nearIR, NEB, NEB-TS, NL-DFT gradient (VV10), 2- and 3-layer-ONIOM, interface openCOSMO-RS, QMMM,   
  Crystal-QMMM, SF, symmetry and pop. for TD-DFT, r2SCAN hybrids, SOLVATOR                                   
                                                                         
[Other institutions]                                                     
  V. Asgeirsson          : NEB                                           
  Christoph Bannwarth    : sTDA-DFT, sTD-DFT, PBEh-3c, B97-3c, D3        
  Sebastian Ehlert       : rSCAN, r2SCAN, r2SCAN-3c, D4, dhf basis sets  
  Marvin Friede          : D4 for Fr, Ra, Ac-Lr                          
  Lars Goerigk           : TD-DFT with DH, B97 family of functionals     
  Stefan Grimme          : VdW corrections, initial TS optimization, DFT functionals, gCP, sTDA/sTD-DF 
  Waldemar Hujo          : DFT-NL                                        
  H. Jonsson             : NEB                                           
  Holger Kruse           : gCP                                           
  Marcel Mueller         : wB97X-3c, vDZP basis set                      
  Hagen Neugebauer       : wr2SCAN                                       
  Tobias Risthaus        : range-separated hybrid DFT                    
  Lukas Wittmann         : regularized MP2, r2SCAN double-hybrids, wr2SCAN        
                                                                         
We gratefully acknowledge several colleagues who have allowed us to      
interface, adapt or use parts of their codes:                            
  Ed Valeev, F. Pavosevic, A. Kumar             : LibInt (2-el integral package), F12 methods 
  Garnet Chan, S. Sharma, J. Yang, R. Olivares  : DMRG                   
  Ulf Ekstrom                                   : XCFun DFT Library      
  Mihaly Kallay                                 : mrcc  (arbitrary order and MRCC methods)
  Frank Weinhold                                : gennbo (NPA and NBO analysis)           
  Simon Mueller                                 : openCOSMO-RS                            
  Christopher J. Cramer and Donald G. Truhlar   : smd solvation model                     
  S Lehtola, MJT Oliveira, MAL Marques          : LibXC Library                           
  Liviu Ungur et al                             : ANISO software                          


 Your calculation uses the libint2 library for the computation of 2-el integrals
 For citations please refer to: http://libint.valeyev.net

 Your ORCA version has been built with support for libXC version: 6.2.2
 For citations please refer to: https://libxc.gitlab.io

 This ORCA versions uses:
   CBLAS   interface :  Fast vector & matrix operations
   LAPACKE interface :  Fast linear algebra routines
   SCALAPACK package :  Parallel linear algebra routines
   Shared memory     :  Shared parallel matrices
   BLAS/LAPACK       :  OpenBLAS 0.3.27  USE64BITINT DYNAMIC_ARCH NO_AFFINITY SkylakeX SINGLE_THREADED
        Core in use  :  SkylakeX
   Copyright (c) 2011-2014, The OpenBLAS Project


================================================================================

----- Orbital basis set information -----
Your calculation utilizes the basis: def2-SVP
   F. Weigend and R. Ahlrichs, Phys. Chem. Chem. Phys. 7, 3297 (2005).

================================================================================
                                        WARNINGS
                       Please study these warnings very carefully!
================================================================================


WARNING: No MP2 level density has been requested!
         To calculate MP2 level properties use
         %mp2 Density relaxed end
         or
         %mp2 Density unrelaxed end

WARNING: Post HF methods need fully converged wavefunctions
  ===> : Setting SCFConvForced true
         You can overwrite this default with %scf ConvForced false 


================================================================================
                                       INPUT FILE
================================================================================
NAME = c60malonicester.inp
|  1> # avogadro generated ORCA input file 
|  2> # Basic Mode
|  3> # 
|  4> ! MP2 SP def2-SVP 
|  5> 
|  6> %pal
|  7> nprocs 34
|  8> end
|  9> 
| 10> * xyz 0 1
| 11>    C        3.36385       -1.99584        0.38646
| 12>    C        3.66055       -0.57285        0.43521
| 13>    C        3.24083        0.19236        1.52993
| 14>    C        2.65579       -2.60009        1.43242
| 15>    C        3.06154       -2.34719       -0.99412
| 16>    C        3.52891       -0.04432       -0.91554
| 17>    C        2.68634        1.51935        1.31924
| 18>    C        2.49219       -0.43431        2.60563
| 19>    C        1.61945       -3.57839        1.13966
| 20>    C        2.20962       -1.80097        2.56343
| 21>    C        2.06732       -3.28952       -1.27468
| 22>    C        3.16250       -1.13814       -1.79683
| 23>    C        2.96525        1.21888       -1.11221
| 24>    C        1.58281        1.70918        2.24615
| 25>    C        2.55208        2.00833        0.02176
| 26>    C        1.46576        0.50539        3.03265
| 27>    C        1.33369       -3.91928       -0.18663
| 28>    C        0.53446       -3.38568        2.09143
| 29>    C        0.89500       -2.28044        2.96586
| 30>    C        1.13794       -3.06222       -2.37168
| 31>    C        2.25990       -0.90971       -2.83933
| 32>    C        2.00935        1.46506       -2.17527
| 33>    C        0.46725        2.47722        1.87801
| 34>    C        1.41956        2.82563       -0.34340
| 35>    C        0.20174        0.05572        3.39970
| 36>    C       -0.04719       -4.08725       -0.61375
| 37>    C       -0.79306       -3.54695        1.68045
| 38>    C       -0.08459       -1.37201        3.38264
| 39>    C       -0.16724       -3.56163       -1.96546
| 40>    C        1.23252       -1.89436       -3.13820
| 41>    C        1.68026        0.41383       -3.03167
| 42>    C        1.00726        2.43337       -1.70273
| 43>    C        0.57561        3.29583        0.66903
| 44>    C       -0.88661        1.96651        2.18929
| 45>    C       -0.98028        0.78308        2.96108
| 46>    C       -1.08994       -3.90896        0.30161
| 47>    C       -1.81255       -2.61139        2.12910
| 48>    C       -1.45957       -1.53957        2.95751
| 49>    C       -1.32709       -2.88258       -2.35126
| 50>    C        0.02672       -1.18089       -3.52921
| 51>    C        0.30692        0.24734       -3.45636
| 52>    C       -0.33714        2.27445       -2.12066
| 53>    C       -1.50375        3.04089        0.03062
| 54>    C       -1.90782        2.18383        1.14331
| 55>    C       -2.01310       -0.21479        2.71689
| 56>    C       -2.29807       -3.20460       -0.09952
| 57>    C       -2.74662       -2.40642        1.03166
| 58>    C       -2.41515       -2.70096       -1.40056
| 59>    C       -1.22687       -1.67322       -3.15453
| 60>    C       -0.66507        1.14123       -3.00315
| 61>    C       -1.51406        2.47096       -1.24894
| 62>    C       -2.83732        1.16909        0.87888
| 63>    C       -2.91733       -0.03068        1.67699
| 64>    C       -3.29656       -1.14096        0.81622
| 65>    C       -2.99147       -1.38385       -1.62202
| 66>    C       -2.25031       -0.74901       -2.70222
| 67>    C       -1.96738        0.61833       -2.63686
| 68>    C       -2.44353        1.40100       -1.52375
| 69>    C       -3.16361        0.80567       -0.48959
| 70>    C       -3.43391       -0.62162       -0.53423
| 71>    H        1.01079        5.70594        4.39439
| 72>    C       -0.02502        6.07921        4.37886
| 73>    H       -0.14197        6.80711        5.19798
| 74>    H        0.31794        7.60819        2.86708
| 75>    C       -0.34142        6.74847        3.05268
| 76>    O       -0.09377        5.86121        1.93801
| 77>    H       -0.70881        5.23855        4.56885
| 78>    C       -1.06593        5.01385        1.58305
| 79>    C       -0.59369        4.18199        0.36495
| 80>    O       -2.14368        4.93390        2.10853
| 81>    H       -1.38979        7.07988        3.01259
| 82>    C       -0.37576        5.20146       -0.77482
| 83>    H       -3.62271        6.46433       -2.59559
| 84>    O       -1.54600        5.77178       -1.08241
| 85>    H       -1.12736        6.33894       -3.03390
| 86>    O        0.67586        5.47844       -1.28485
| 87>    C       -1.53396        6.78416       -2.11160
| 88>    C       -2.95187        7.28288       -2.29224
| 89>    H       -2.97708        8.05869       -3.07354
| 90>    H       -3.33996        7.71875       -1.35860
| 91>    H       -0.84376        7.58709       -1.80568
| 92> *
| 93> 
| 94> 
| 95>                          ****END OF INPUT****
================================================================================

                       ****************************
                       * Single Point Calculation *
                       ****************************

---------------------------------
CARTESIAN COORDINATES (ANGSTROEM)
---------------------------------
  C      3.363850   -1.995840    0.386460
  C      3.660550   -0.572850    0.435210
  C      3.240830    0.192360    1.529930
  C      2.655790   -2.600090    1.432420
  C      3.061540   -2.347190   -0.994120
  C      3.528910   -0.044320   -0.915540
  C      2.686340    1.519350    1.319240
  C      2.492190   -0.434310    2.605630
  C      1.619450   -3.578390    1.139660
  C      2.209620   -1.800970    2.563430
  C      2.067320   -3.289520   -1.274680
  C      3.162500   -1.138140   -1.796830
  C      2.965250    1.218880   -1.112210
  C      1.582810    1.709180    2.246150
  C      2.552080    2.008330    0.021760
  C      1.465760    0.505390    3.032650
  C      1.333690   -3.919280   -0.186630
  C      0.534460   -3.385680    2.091430
  C      0.895000   -2.280440    2.965860
  C      1.137940   -3.062220   -2.371680
  C      2.259900   -0.909710   -2.839330
  C      2.009350    1.465060   -2.175270
  C      0.467250    2.477220    1.878010
  C      1.419560    2.825630   -0.343400
  C      0.201740    0.055720    3.399700
  C     -0.047190   -4.087250   -0.613750
  C     -0.793060   -3.546950    1.680450
  C     -0.084590   -1.372010    3.382640
  C     -0.167240   -3.561630   -1.965460
  C      1.232520   -1.894360   -3.138200
  C      1.680260    0.413830   -3.031670
  C      1.007260    2.433370   -1.702730
  C      0.575610    3.295830    0.669030
  C     -0.886610    1.966510    2.189290
  C     -0.980280    0.783080    2.961080
  C     -1.089940   -3.908960    0.301610
  C     -1.812550   -2.611390    2.129100
  C     -1.459570   -1.539570    2.957510
  C     -1.327090   -2.882580   -2.351260
  C      0.026720   -1.180890   -3.529210
  C      0.306920    0.247340   -3.456360
  C     -0.337140    2.274450   -2.120660
  C     -1.503750    3.040890    0.030620
  C     -1.907820    2.183830    1.143310
  C     -2.013100   -0.214790    2.716890
  C     -2.298070   -3.204600   -0.099520
  C     -2.746620   -2.406420    1.031660
  C     -2.415150   -2.700960   -1.400560
  C     -1.226870   -1.673220   -3.154530
  C     -0.665070    1.141230   -3.003150
  C     -1.514060    2.470960   -1.248940
  C     -2.837320    1.169090    0.878880
  C     -2.917330   -0.030680    1.676990
  C     -3.296560   -1.140960    0.816220
  C     -2.991470   -1.383850   -1.622020
  C     -2.250310   -0.749010   -2.702220
  C     -1.967380    0.618330   -2.636860
  C     -2.443530    1.401000   -1.523750
  C     -3.163610    0.805670   -0.489590
  C     -3.433910   -0.621620   -0.534230
  H      1.010790    5.705940    4.394390
  C     -0.025020    6.079210    4.378860
  H     -0.141970    6.807110    5.197980
  H      0.317940    7.608190    2.867080
  C     -0.341420    6.748470    3.052680
  O     -0.093770    5.861210    1.938010
  H     -0.708810    5.238550    4.568850
  C     -1.065930    5.013850    1.583050
  C     -0.593690    4.181990    0.364950
  O     -2.143680    4.933900    2.108530
  H     -1.389790    7.079880    3.012590
  C     -0.375760    5.201460   -0.774820
  H     -3.622710    6.464330   -2.595590
  O     -1.546000    5.771780   -1.082410
  H     -1.127360    6.338940   -3.033900
  O      0.675860    5.478440   -1.284850
  C     -1.533960    6.784160   -2.111600
  C     -2.951870    7.282880   -2.292240
  H     -2.977080    8.058690   -3.073540
  H     -3.339960    7.718750   -1.358600
  H     -0.843760    7.587090   -1.805680

----------------------------
CARTESIAN COORDINATES (A.U.)
----------------------------
  NO LB      ZA    FRAG     MASS         X           Y           Z
   0 C     6.0000    0    12.011    6.356755   -3.771591    0.730304
   1 C     6.0000    0    12.011    6.917437   -1.082530    0.822428
   2 C     6.0000    0    12.011    6.124281    0.363508    2.891149
   3 C     6.0000    0    12.011    5.018716   -4.913458    2.706882
   4 C     6.0000    0    12.011    5.785472   -4.435546   -1.878615
   5 C     6.0000    0    12.011    6.668673   -0.083753   -1.730120
   6 C     6.0000    0    12.011    5.076447    2.871155    2.493002
   7 C     6.0000    0    12.011    4.709557   -0.820727    4.923927
   8 C     6.0000    0    12.011    3.060317   -6.762177    2.153645
   9 C     6.0000    0    12.011    4.175577   -3.403340    4.844181
  10 C     6.0000    0    12.011    3.906669   -6.216292   -2.408796
  11 C     6.0000    0    12.011    5.976259   -2.150773   -3.395517
  12 C     6.0000    0    12.011    5.603510    2.303349   -2.101772
  13 C     6.0000    0    12.011    2.991077    3.229882    4.244608
  14 C     6.0000    0    12.011    4.822732    3.795194    0.041120
  15 C     6.0000    0    12.011    2.769885    0.955049    5.730878
  16 C     6.0000    0    12.011    2.520309   -7.406366   -0.352680
  17 C     6.0000    0    12.011    1.009983   -6.398008    3.952230
  18 C     6.0000    0    12.011    1.691305   -4.309407    5.604663
  19 C     6.0000    0    12.011    2.150395   -5.786757   -4.481826
  20 C     6.0000    0    12.011    4.270592   -1.719103   -5.365556
  21 C     6.0000    0    12.011    3.797121    2.768562   -4.110665
  22 C     6.0000    0    12.011    0.882975    4.681267    3.548925
  23 C     6.0000    0    12.011    2.682580    5.339667   -0.648932
  24 C     6.0000    0    12.011    0.381233    0.105296    6.424502
  25 C     6.0000    0    12.011   -0.089176   -7.723783   -1.159819
  26 C     6.0000    0    12.011   -1.498666   -6.702764    3.175590
  27 C     6.0000    0    12.011   -0.159852   -2.592723    6.392263
  28 C     6.0000    0    12.011   -0.316038   -6.730505   -3.714181
  29 C     6.0000    0    12.011    2.329125   -3.579822   -5.930339
  30 C     6.0000    0    12.011    3.175231    0.782025   -5.729026
  31 C     6.0000    0    12.011    1.903446    4.598403   -3.217693
  32 C     6.0000    0    12.011    1.087745    6.228216    1.264283
  33 C     6.0000    0    12.011   -1.675450    3.716165    4.137159
  34 C     6.0000    0    12.011   -1.852461    1.479807    5.595630
  35 C     6.0000    0    12.011   -2.059688   -7.386864    0.569960
  36 C     6.0000    0    12.011   -3.425223   -4.934812    4.023416
  37 C     6.0000    0    12.011   -2.758188   -2.909366    5.588884
  38 C     6.0000    0    12.011   -2.507837   -5.447287   -4.443237
  39 C     6.0000    0    12.011    0.050493   -2.231559   -6.669240
  40 C     6.0000    0    12.011    0.579995    0.467405   -6.531574
  41 C     6.0000    0    12.011   -0.637102    4.298088   -4.007467
  42 C     6.0000    0    12.011   -2.841676    5.746449    0.057863
  43 C     6.0000    0    12.011   -3.605257    4.126841    2.160543
  44 C     6.0000    0    12.011   -3.804208   -0.405894    5.134178
  45 C     6.0000    0    12.011   -4.342723   -6.055816   -0.188066
  46 C     6.0000    0    12.011   -5.190360   -4.547475    1.949555
  47 C     6.0000    0    12.011   -4.563972   -5.104075   -2.646675
  48 C     6.0000    0    12.011   -2.318448   -3.161928   -5.961198
  49 C     6.0000    0    12.011   -1.256800    2.156612   -5.675131
  50 C     6.0000    0    12.011   -2.861159    4.669438   -2.360155
  51 C     6.0000    0    12.011   -5.361758    2.209260    1.660843
  52 C     6.0000    0    12.011   -5.512955   -0.057977    3.169052
  53 C     6.0000    0    12.011   -6.229596   -2.156102    1.542432
  54 C     6.0000    0    12.011   -5.653059   -2.615098   -3.065174
  55 C     6.0000    0    12.011   -4.252470   -1.415424   -5.106456
  56 C     6.0000    0    12.011   -3.717809    1.168474   -4.982943
  57 C     6.0000    0    12.011   -4.617603    2.647506   -2.879470
  58 C     6.0000    0    12.011   -5.978356    1.522496   -0.925191
  59 C     6.0000    0    12.011   -6.489149   -1.174692   -1.009548
  60 H     1.0000    0     1.008    1.910116   10.782664    8.304194
  61 C     6.0000    0    12.011   -0.047281   11.488042    8.274846
  62 H     1.0000    0     1.008   -0.268284   12.863574    9.822759
  63 H     1.0000    0     1.008    0.600820   14.377395    5.417996
  64 C     6.0000    0    12.011   -0.645190   12.752760    5.768729
  65 O     8.0000    0    15.999   -0.177200   11.076082    3.662308
  66 H     1.0000    0     1.008   -1.339457    9.899425    8.633875
  67 C     6.0000    0    12.011   -2.014316    9.474803    2.991531
  68 C     6.0000    0    12.011   -1.121912    7.902816    0.689656
  69 O     8.0000    0    15.999   -4.050968    9.323720    3.984544
  70 H     1.0000    0     1.008   -2.626322   13.379034    5.692970
  71 C     6.0000    0    12.011   -0.710083    9.829335   -1.464198
  72 H     1.0000    0     1.008   -6.845930   12.215813   -4.904954
  73 O     8.0000    0    15.999   -2.921517   10.907084   -2.045458
  74 H     1.0000    0     1.008   -2.130402   11.978861   -5.733240
  75 O     8.0000    0    15.999    1.277190   10.352751   -2.428015
  76 C     6.0000    0    12.011   -2.898764   12.820204   -3.990346
  77 C     6.0000    0    12.011   -5.578226   13.762649   -4.331706
  78 H     1.0000    0     1.008   -5.625866   15.228717   -5.808149
  79 H     1.0000    0     1.008   -6.311610   14.586324   -2.567382
  80 H     1.0000    0     1.008   -1.594475   14.337522   -3.412241

--------------------------------
INTERNAL COORDINATES (ANGSTROEM)
--------------------------------
 C      0   0   0     0.000000000000     0.00000000     0.00000000
 C      1   0   0     1.454409843407     0.00000000     0.00000000
 C      2   1   0     1.400043963917   119.98713415     0.00000000
 C      1   2   3     1.400178327107   120.02326371     0.15486655
 C      1   2   3     1.456310164422   108.06958522   142.79819022
 C      2   1   3     1.456433525088   107.78996612   217.71073530
 C      3   2   1     1.453530837753   120.00021021   221.63273093
 C      3   2   1     1.452689790871   119.84919532   359.09174325
 C      4   1   2     1.454915771858   120.00463322   138.28925289
 C      8   3   2     1.396204211604   120.27659364     1.11235523
 C      5   1   2     1.398275062675   120.02679868   217.16399922
 C      6   2   1     1.451678526603   108.20452509   359.56918344
 C      6   2   1     1.397163528188   119.67713189   141.37301601
 C      7   3   2     1.453607938166   108.44529505   141.10157724
 C      7   3   2     1.393047572196   119.48718212     1.30722102
 C     14   7   3     1.442703474939   107.47277964     0.45084326
 C      9   4   1     1.398895969613   120.00923098     0.24234973
 C      9   4   1     1.456092914995   108.07395151   217.53350242
 C     18   9   4     1.454706971902   107.98602154     0.47441877
 C     11   5   1     1.455617214243   119.99721334   138.21775174
 C     12   6   2     1.397738628965   119.51442926   142.46006865
 C     13   6   2     1.450670867564   121.49457365   222.96598949
 C     14   7   3     1.403526492376   120.50489214   213.67124146
 C     15   7   3     1.443579809363   120.66004910   143.48648438
 C     16  14   7     1.390926084233   119.16604121   216.49087230
 C     17   9   4     1.455154627419   120.01753831   221.40106607
 C     18   9   4     1.399007478072   119.98592881   142.98473164
 C     19  18   9     1.399481047174   119.91487076   141.83150483
 C     26  17   9     1.455269154143   108.01255694   142.67136725
 C     20  11   5     1.400141159455   119.98024799   359.44007808
 C     22  13   6     1.395279793088   118.51213766   358.45853965
 C     22  13   6     1.471428787200   108.97143272   144.28093470
 C     24  15   7     1.399412072050   118.70827883    10.12301751
 C     23  14   7     1.480086768436   118.88517584   135.52065272
 C     34  23  14     1.415959193586   117.61540179     5.95266151
 C     26  17   9     1.398927738019   120.03798714   359.95420092
 C     27  18   9     1.454619949059   120.02007179   221.81747208
 C     37  27  18     1.399877180648   119.88355343     0.87242844
 C     29  26  17     1.398285580631   120.00686153   217.03118508
 C     30  20  11     1.454607129434   120.01877251   221.87589699
 C     31  22  13     1.447115500504   119.38297532   140.01494047
 C     32  22  13     1.416803589528   118.53416397   216.58745608
 C     33  24  15     2.190045602562   108.81946127   223.94420558
 C     43  33  24     1.461473039300    96.24827208   121.05622938
 C     38  37  27     1.455793767571   120.20286205   137.23744197
 C     36  26  17     1.454856138386   120.01821344   138.64398786
 C     46  36  26     1.455285747645   107.88912157   217.40254108
 C     46  36  26     1.400023591801   119.98900391   359.77401202
 C     40  30  20     1.397949147645   119.90501342   359.10252670
 C     41  31  22     1.396138673736   119.45750505     0.04228754
 C     43  33  24     1.400785599084   108.70095715   359.71677667
 C     44  43  33     1.401281821227   117.67096264   215.29343637
 C     45  38  37     1.390295074795   119.43456587     1.43850855
 C     47  46  36     1.396509007776   119.89845849   142.57185212
 C     48  46  36     1.454636733381   120.02242702   221.77430123
 C     49  40  30     1.451267685095   119.44813581   138.80966792
 C     56  49  40     1.397834035249   119.65473009   359.50174298
 C     57  56  49     1.441632763050   120.02068809   220.54697224
 C     58  57  56     1.393707257963   120.77508025     1.34918914
 C     55  48  46     1.400012432302   119.99256235   359.75720518
 H     23  14   7     4.129435418359    99.40455380   248.76900766
 C     61  23  14     1.101123984799    97.62197094   200.61824409
 H     62  61  23     1.102031436439   108.25518945   166.13615512
 H     62  61  23     2.177356234152    95.72007621   262.22258328
 C     64  62  61     1.099236757027    40.45439359   125.24732916
 O     65  64  62     1.446046347459   104.30019708   239.48302644
 H     62  61  23     1.100170077670   108.85659264    48.87617021
 C     66  65  64     1.337576404098   117.95591690   205.76716389
 C     43  33  24     1.497362668995    43.04170957   243.64268782
 O     68  66  65     1.201693095345   125.30630630     0.72983767
 H     65  64  62     1.100236089710   109.25794321   123.45743687
 C     69  43  33     1.544632065801   115.08542862   120.54686429
 H     72  69  43     3.930995844859   115.93015210    47.90582081
 O     72  69  43     1.337661454965   109.12581640    62.35394276
 H     74  72  69     2.074907982369    98.99215292   204.12747090
 O     72  69  43     1.201146596257   126.08913960   240.23812969
 C     75  74  72     1.101899132589    41.30294035   229.88725038
 C     73  72  69     1.100941247570    66.91673110   131.18731963
 H     78  73  72     1.101338453973   108.31997860   142.95387270
 H     78  73  72     1.101035946098   108.25224822   260.22336429
 H     77  75  74     1.102115997207   107.19413400   117.02449043

---------------------------
INTERNAL COORDINATES (A.U.)
---------------------------
 C      0   0   0     0.000000000000     0.00000000     0.00000000
 C      1   0   0     2.748436290519     0.00000000     0.00000000
 C      2   1   0     2.645699667252   119.98713415     0.00000000
 C      1   2   3     2.645953576884   120.02326371     0.15486655
 C      1   2   3     2.752027376804   108.06958522   142.79819022
 C      2   1   3     2.752260494678   107.78996612   217.71073530
 C      3   2   1     2.746775210563   120.00021021   221.63273093
 C      3   2   1     2.745185862289   119.84919532   359.09174325
 C      4   1   2     2.749392356734   120.00463322   138.28925289
 C      8   3   2     2.638443586958   120.27659364     1.11235523
 C      5   1   2     2.642356928348   120.02679868   217.16399922
 C      6   2   1     2.743274849774   108.20452509   359.56918344
 C      6   2   1     2.640256432579   119.67713189   141.37301601
 C      7   3   2     2.746920909228   108.44529505   141.10157724
 C      7   3   2     2.632478402974   119.48718212     1.30722102
 C     14   7   3     2.726314460091   107.47277964     0.45084326
 C      9   4   1     2.643530272415   120.00923098     0.24234973
 C      9   4   1     2.751616834885   108.07395151   217.53350242
 C     18   9   4     2.748997782000   107.98602154     0.47441877
 C     11   5   1     2.750717890740   119.99721334   138.21775174
 C     12   6   2     2.641343215546   119.51442926   142.46006865
 C     13   6   2     2.741370650155   121.49457365   222.96598949
 C     14   7   3     2.652280692293   120.50489214   213.67124146
 C     15   7   3     2.727970492154   120.66004910   143.48648438
 C     16  14   7     2.628469371728   119.16604121   216.49087230
 C     17   9   4     2.749843728331   120.01753831   221.40106607
 C     18   9   4     2.643740992863   119.98592881   142.98473164
 C     19  18   9     2.644635908773   119.91487076   141.83150483
 C     26  17   9     2.750060152473   108.01255694   142.67136725
 C     20  11   5     2.645883340201   119.98024799   359.44007808
 C     22  13   6     2.636696689131   118.51213766   358.45853965
 C     22  13   6     2.780597433375   108.97143272   144.28093470
 C     24  15   7     2.644505564678   118.70827883    10.12301751
 C     23  14   7     2.796958646785   118.88517584   135.52065272
 C     34  23  14     2.675775092685   117.61540179     5.95266151
 C     26  17   9     2.643590306003   120.03798714   359.95420092
 C     27  18   9     2.748833332660   120.02007179   221.81747208
 C     37  27  18     2.645384492551   119.88355343     0.87242844
 C     29  26  17     2.642376804403   120.00686153   217.03118508
 C     30  20  11     2.748809107079   120.01877251   221.87589699
 C     31  22  13     2.734651980106   119.38297532   140.01494047
 C     32  22  13     2.677370769765   118.53416397   216.58745608
 C     33  24  15     4.138586409640   108.81946127   223.94420558
 C     43  33  24     2.761783796386    96.24827208   121.05622938
 C     38  37  27     2.751051528180   120.20286205   137.23744197
 C     36  26  17     2.749279665804   120.01821344   138.64398786
 C     46  36  26     2.750091509649   107.88912157   217.40254108
 C     46  36  26     2.645661169533   119.98900391   359.77401202
 C     40  30  20     2.641741038197   119.90501342   359.10252670
 C     41  31  22     2.638319738336   119.45750505     0.04228754
 C     43  33  24     2.647101154609   108.70095715   359.71677667
 C     44  43  33     2.648038878561   117.67096264   215.29343637
 C     45  38  37     2.627276936703   119.43456587     1.43850855
 C     47  46  36     2.639019568251   119.89845849   142.57185212
 C     48  46  36     2.748865050431   120.02242702   221.77430123
 C     49  40  30     2.742498471839   119.44813581   138.80966792
 C     56  49  40     2.641523507294   119.65473009   359.50174298
 C     57  56  49     2.724291107853   120.02068809   220.54697224
 C     58  57  56     2.633725028409   120.77508025     1.34918914
 C     55  48  46     2.645640081136   119.99256235   359.75720518
 H     23  14   7     7.803502028414    99.40455380   248.76900766
 C     61  23  14     2.080822770762    97.62197094   200.61824409
 H     62  61  23     2.082537605842   108.25518945   166.13615512
 H     62  61  23     4.114606978533    95.72007621   262.22258328
 C     64  62  61     2.077256427121    40.45439359   125.24732916
 O     65  64  62     2.732631573655   104.30019708   239.48302644
 H     62  61  23     2.079020147531   108.85659264    48.87617021
 C     66  65  64     2.527653086941   117.95591690   205.76716389
 C     43  33  24     2.829605367558    43.04170957   243.64268782
 O     68  66  65     2.270870847226   125.30630630     0.72983767
 H     65  64  62     2.079144892208   109.25794321   123.45743687
 C     69  43  33     2.918931582037   115.08542862   120.54686429
 H     72  69  43     7.428505580366   115.93015210    47.90582081
 O     72  69  43     2.527813809787   109.12581640    62.35394276
 H     74  72  69     3.921007839765    98.99215292   204.12747090
 O     72  69  43     2.269838113618   126.08913960   240.23812969
 C     75  74  72     2.082287587798    41.30294035   229.88725038
 C     73  72  69     2.080477447444    66.91673110   131.18731963
 H     78  73  72     2.081228058766   108.31997860   142.95387270
 H     78  73  72     2.080656401728   108.25224822   260.22336429
 H     77  75  74     2.082697402535   107.19413400   117.02449043

---------------------
BASIS SET INFORMATION
---------------------
There are 3 groups of distinct atoms

 Group   1 Type C   : 7s4p1d contracted to 3s2p1d pattern {511/31/1}
 Group   2 Type H   : 4s1p contracted to 2s1p pattern {31/1}
 Group   3 Type O   : 7s4p1d contracted to 3s2p1d pattern {511/31/1}

Atom   0C    basis set group =>   1
Atom   1C    basis set group =>   1
Atom   2C    basis set group =>   1
Atom   3C    basis set group =>   1
Atom   4C    basis set group =>   1
Atom   5C    basis set group =>   1
Atom   6C    basis set group =>   1
Atom   7C    basis set group =>   1
Atom   8C    basis set group =>   1
Atom   9C    basis set group =>   1
Atom  10C    basis set group =>   1
Atom  11C    basis set group =>   1
Atom  12C    basis set group =>   1
Atom  13C    basis set group =>   1
Atom  14C    basis set group =>   1
Atom  15C    basis set group =>   1
Atom  16C    basis set group =>   1
Atom  17C    basis set group =>   1
Atom  18C    basis set group =>   1
Atom  19C    basis set group =>   1
Atom  20C    basis set group =>   1
Atom  21C    basis set group =>   1
Atom  22C    basis set group =>   1
Atom  23C    basis set group =>   1
Atom  24C    basis set group =>   1
Atom  25C    basis set group =>   1
Atom  26C    basis set group =>   1
Atom  27C    basis set group =>   1
Atom  28C    basis set group =>   1
Atom  29C    basis set group =>   1
Atom  30C    basis set group =>   1
Atom  31C    basis set group =>   1
Atom  32C    basis set group =>   1
Atom  33C    basis set group =>   1
Atom  34C    basis set group =>   1
Atom  35C    basis set group =>   1
Atom  36C    basis set group =>   1
Atom  37C    basis set group =>   1
Atom  38C    basis set group =>   1
Atom  39C    basis set group =>   1
Atom  40C    basis set group =>   1
Atom  41C    basis set group =>   1
Atom  42C    basis set group =>   1
Atom  43C    basis set group =>   1
Atom  44C    basis set group =>   1
Atom  45C    basis set group =>   1
Atom  46C    basis set group =>   1
Atom  47C    basis set group =>   1
Atom  48C    basis set group =>   1
Atom  49C    basis set group =>   1
Atom  50C    basis set group =>   1
Atom  51C    basis set group =>   1
Atom  52C    basis set group =>   1
Atom  53C    basis set group =>   1
Atom  54C    basis set group =>   1
Atom  55C    basis set group =>   1
Atom  56C    basis set group =>   1
Atom  57C    basis set group =>   1
Atom  58C    basis set group =>   1
Atom  59C    basis set group =>   1
Atom  60H    basis set group =>   2
Atom  61C    basis set group =>   1
Atom  62H    basis set group =>   2
Atom  63H    basis set group =>   2
Atom  64C    basis set group =>   1
Atom  65O    basis set group =>   3
Atom  66H    basis set group =>   2
Atom  67C    basis set group =>   1
Atom  68C    basis set group =>   1
Atom  69O    basis set group =>   3
Atom  70H    basis set group =>   2
Atom  71C    basis set group =>   1
Atom  72H    basis set group =>   2
Atom  73O    basis set group =>   3
Atom  74H    basis set group =>   2
Atom  75O    basis set group =>   3
Atom  76C    basis set group =>   1
Atom  77C    basis set group =>   1
Atom  78H    basis set group =>   2
Atom  79H    basis set group =>   2
Atom  80H    basis set group =>   2


           ************************************************************
           *        Program running with 34 parallel MPI-processes    *
           *              working on a common directory               *
           ************************************************************
------------------------------------------------------------------------------
                             ORCA STARTUP CALCULATIONS
------------------------------------------------------------------------------
------------------------------------------------------------------------------
                   ___                                                        
                  /   \      - P O W E R E D   B Y -                         
                 /     \                                                     
                 |  |  |   _    _      __       _____    __    __             
                 |  |  |  | |  | |    /  \     |  _  \  |  |  /  |          
                  \  \/   | |  | |   /    \    | | | |  |  | /  /          
                 / \  \   | |__| |  /  /\  \   | |_| |  |  |/  /          
                |  |  |   |  __  | /  /__\  \  |    /   |      \           
                |  |  |   | |  | | |   __   |  |    \   |  |\   \          
                \     /   | |  | | |  |  |  |  | |\  \  |  | \   \       
                 \___/    |_|  |_| |__|  |__|  |_| \__\ |__|  \__/        
                                                                              
                      - O R C A' S   B I G   F R I E N D -                    
                                      &                                       
                       - I N T E G R A L  F E E D E R -                       
                                                                              
 v1 FN, 2020, v2 2021, v3 2022-2024                                           
------------------------------------------------------------------------------


----------------------
SHARK INTEGRAL PACKAGE
----------------------

Number of atoms                             ...     81
Number of basis functions                   ...   1044
Number of shells                            ...    456
Maximum angular momentum                    ...      2
Integral batch strategy                     ... SHARK/LIBINT Hybrid
RI-J (if used) integral strategy            ... SPLIT-RIJ (Revised 2003 algorithm where possible)
Printlevel                                  ...      1
Contraction scheme used                     ... SEGMENTED contraction
Prescreening option                         ... SCHWARTZ
   Thresh                                   ... 1.000e-10
   Tcut                                     ... 1.000e-11
   Tpresel                                  ... 1.000e-11 
Coulomb Range Separation                    ... NOT USED
Exchange Range Separation                   ... NOT USED
Multipole approximations                    ... NOT USED
Finite Nucleus Model                        ... NOT USED
CABS basis                                  ... NOT available
Auxiliary Coulomb fitting basis             ... NOT available
Auxiliary J/K fitting basis                 ... NOT available
Auxiliary Correlation fitting basis         ... NOT available
Auxiliary 'external' fitting basis          ... NOT available

Checking pre-screening integrals            ... done (  0.0 sec) Dimension = 456
Check shell pair data                       ... done (  0.0 sec)
Shell pair information
Shell pair cut-off parameter TPreSel        ...   1.0e-11
Total number of shell pairs                 ...    104196
Shell pairs after pre-screening             ...     63567
Total number of primitive shell pairs       ...    408206
Primitive shell pairs kept                  ...    144019
          la=0 lb=0:  16123 shell pairs
          la=1 lb=0:  23502 shell pairs
          la=1 lb=1:   8424 shell pairs
          la=2 lb=0:   8002 shell pairs
          la=2 lb=1:   6529 shell pairs
          la=2 lb=2:    987 shell pairs

Calculating one electron integrals          ... done (  0.1 sec)
Calculating Nuclear repulsion               ... done (  0.0 sec) ENN=  11262.427728177885 Eh

Diagonalization of the overlap matrix:
Smallest eigenvalue                        ... 5.816e-05
Time for diagonalization                   ...    0.199 sec
Threshold for overlap eigenvalues          ... 1.000e-07
Number of eigenvalues below threshold      ... 0
Time for construction of square roots      ...    0.086 sec
Total time needed                          ...    0.295 sec

-------------------
DFT GRID GENERATION
-------------------

General Integration Accuracy     IntAcc      ... 4.388
Radial Grid Type                 RadialGrid  ... OptM3 with GC (2021)
Angular Grid (max. ang.)         AngularGrid ... 4 (Lebedev-302)
Angular grid pruning method      GridPruning ... 4 (adaptive)
Weight generation scheme         WeightScheme... mBecke (2022)
Basis function cutoff            BFCut       ... 1.0000e-10
Integration weight cutoff        WCut        ... 1.0000e-14
Partially contracted basis set               ... off
Rotationally invariant grid construction     ... off
Angular grids for H and He will be reduced by one unit

Total number of grid points                  ...   445841
Total number of batches                      ...     7003
Average number of points per batch           ...       63
Average number of grid points per atom       ...     5504
Initializing property integral containers    ... done (  0.0 sec)

SHARK setup successfully completed in   3.3 seconds

Maximum memory used throughout the entire STARTUP-calculation: 149.9 MB


           ************************************************************
           *        Program running with 34 parallel MPI-processes    *
           *              working on a common directory               *
           ************************************************************
-------------------------------------------------------------------------------
                                 ORCA GUESS
                   Start orbitals & Density for SCF / CASSCF
-------------------------------------------------------------------------------

------------
SCF SETTINGS
------------
Hamiltonian:
 Ab initio Hamiltonian  Method          .... Hartree-Fock(GTOs)


General Settings:
 Integral files         IntName         .... c60malonicester
 Hartree-Fock type      HFTyp           .... RHF
 Total Charge           Charge          ....    0
 Multiplicity           Mult            ....    1
 Number of Electrons    NEL             ....  444
 Basis Dimension        Dim             .... 1044
 Nuclear Repulsion      ENuc            ....  11262.4277281779 Eh

Convergence Acceleration:
 AO-DIIS                CNVDIIS         .... on
   Start iteration      DIISMaxIt       ....    12
   Startup error        DIISStart       ....  0.200000
   # of expansion vecs  DIISMaxEq       ....     5
   Bias factor          DIISBfac        ....   1.050
   Max. coefficient     DIISMaxC        ....  10.000
 MO-DIIS                CNVKDIIS        .... off
 Trust-Rad. Augm. Hess. CNVTRAH         .... auto
   Auto Start mean grad. ratio tolernc. ....  1.125000
   Auto Start start iteration           ....    50
   Auto Start num. interpolation iter.  ....    10
   Max. Number of Micro iterations      ....    24
   Max. Number of Macro iterations      .... Maxiter - #DIIS iter
   Number of Davidson start vectors     ....     2
   Converg. threshold    (grad. norm)   ....   5.000e-05
   Grad. Scal. Fac. for Micro threshold ....   0.100
   Minimum threshold for Micro iter.    ....   1.000e-02
   NR start threshold (gradient norm)   ....   1.000e-04
   Initial trust radius                 ....   0.400
   Minimum AH scaling param. (alpha)    ....   1.000
   Maximum AH scaling param. (alpha)    .... 1000.000
   Quad. conv. algorithm                .... NR
   White noise on init. David. guess    .... on
   Maximum white noise                  ....   0.010
   Pseudo random numbers                .... off
   Inactive MOs                         .... canonical
   Orbital update algorithm             .... Taylor
   Preconditioner                       .... Diag
   Full preconditioner red. dimension   ....   250
 SOSCF                  CNVSOSCF        .... on
   Start iteration      SOSCFMaxIt      ....   150
   Startup grad/error   SOSCFStart      ....  0.003300
   Hessian update       SOSCFHessUp     .... L-BFGS
 Level Shifting         CNVShift        .... on
   Level shift para.    LevelShift      ....    0.2500
   Turn off err/grad.   ShiftErr        ....    0.0010
 Zerner damping         CNVZerner       .... off
 Static damping         CNVDamp         .... on
   Fraction old density DampFac         ....    0.7000
   Max. Damping (<1)    DampMax         ....    0.9800
   Min. Damping (>=0)   DampMin         ....    0.0000
   Turn off err/grad.   DampErr         ....    0.1000

SCF Procedure:
 Maximum # iterations   MaxIter         ....   125
 SCF integral mode      SCFMode         .... Direct
   Integral package                     .... SHARK and LIBINT hybrid scheme
 Reset frequency        DirectResetFreq ....    20
 Integral Threshold     Thresh          ....  1.000e-10 Eh
 Primitive CutOff       TCut            ....  1.000e-11 Eh

Convergence Tolerance:
 Convergence Check Mode ConvCheckMode   .... Total+1el-Energy
 Convergence forced     ConvForced      .... 1
 Energy Change          TolE            ....  1.000e-06 Eh
 1-El. energy change                    ....  1.000e-03 Eh
 Orbital Gradient       TolG            ....  5.000e-05
 Orbital Rotation angle TolX            ....  5.000e-05
 DIIS Error             TolErr          ....  1.000e-06

------------------------------
INITIAL GUESS: MODEL POTENTIAL
------------------------------
Loading Hartree-Fock densities                     ... done
Calculating cut-offs                               ... done
Initializing the effective Hamiltonian             ... done
Setting up the integral package (SHARK)            ... done
Starting the Coulomb interaction                   ... done (   0.4 sec)
Making the grid                                    ... done (   0.5 sec)
Mapping shells                                     ... done
Starting the XC term evaluation                    ... done (   0.1 sec)
Transforming the Hamiltonian                       ... done (   0.1 sec)
Diagonalizing the Hamiltonian                      ... done (   0.2 sec)
Back transforming the eigenvectors                 ... done (   0.1 sec)
Now organizing SCF variables                       ... done
                      ------------------
                      INITIAL GUESS DONE (   1.4 sec)
                      ------------------
             **** ENERGY FILE WAS UPDATED (c60malonicester.en.tmp) ****
Finished Guess after   2.6 sec
Maximum memory used throughout the entire GUESS-calculation: 108.9 MB


           ************************************************************
           *        Program running with 34 parallel MPI-processes    *
           *              working on a common directory               *
           ************************************************************

-------------------------------------------------------------------------------------------
                                      ORCA LEAN-SCF
                              memory conserving SCF solver
-------------------------------------------------------------------------------------------

----------------------------------------D-I-I-S--------------------------------------------
Iteration    Energy (Eh)           Delta-E    RMSDP     MaxDP     DIISErr   Damp  Time(sec)
-------------------------------------------------------------------------------------------
               ***  Starting incremental Fock matrix formation  ***
    1    -2838.5172701320607302     0.00e+00  2.44e-03  7.54e-02  2.37e-01  0.700  25.3
    2    -2838.9941944284128112    -4.77e-01  1.82e-03  4.96e-02  1.37e-01  0.700  22.6
                               ***Turning on AO-DIIS***
    3    -2839.2958782226087351    -3.02e-01  1.33e-03  3.10e-02  7.41e-02  0.700  21.8
    4    -2839.4988415461830300    -2.03e-01  3.16e-03  7.36e-02  5.18e-02  0.000  21.2
    5    -2839.9814923389421892    -4.83e-01  4.51e-04  1.99e-02  7.71e-03  0.000  22.8
                              *** Initializing SOSCF ***
---------------------------------------S-O-S-C-F--------------------------------------
Iteration    Energy (Eh)           Delta-E    RMSDP     MaxDP     MaxGrad    Time(sec)
--------------------------------------------------------------------------------------
    6    -2839.9850021152888075    -3.51e-03  1.17e-04  3.62e-03  2.38e-03    19.3
               *** Restarting incremental Fock matrix formation ***
    7    -2839.9858085699179355    -8.06e-04  8.15e-05  3.51e-03  1.74e-03    24.9
    8    -2839.9861462370117806    -3.38e-04  1.09e-04  8.45e-03  6.76e-04    16.2
    9    -2839.9862447018276725    -9.85e-05  4.10e-05  2.51e-03  3.34e-04    16.4
   10    -2839.9862745483824256    -2.98e-05  1.16e-05  1.35e-03  1.09e-04    14.9
   11    -2839.9862753554243682    -8.07e-07  7.55e-06  3.55e-04  4.50e-05    12.8
                 **** Energy Check signals convergence ****

               *****************************************************
               *                     SUCCESS                       *
               *           SCF CONVERGED AFTER  11 CYCLES          *
               *****************************************************

             **** ENERGY FILE WAS UPDATED (c60malonicester.en.tmp) ****

----------------
TOTAL SCF ENERGY
----------------

Total Energy       :      -2839.98627535542437 Eh          -77279.95539 eV

Components:
Nuclear Repulsion  :      11262.42772817788500 Eh          306466.23893 eV
Electronic Energy  :     -14102.41400353330937 Eh         -383746.19432 eV
One Electron Energy:     -26303.39626410082201 Eh         -715751.80046 eV
Two Electron Energy:      12200.98226056751264 Eh          332005.60615 eV

Virial components:
Potential Energy   :      -5665.97519961527360 Eh         -154179.02349 eV
Kinetic Energy     :       2825.98892425984923 Eh           76899.06810 eV
Virial Ratio       :          2.00495308066334

---------------
SCF CONVERGENCE
---------------

  Last Energy change         ...    8.0704e-07  Tolerance :   1.0000e-06
  Last MAX-Density change    ...    3.5477e-04  Tolerance :   1.0000e-05
  Last RMS-Density change    ...    7.5508e-06  Tolerance :   1.0000e-06
  Last DIIS Error            ...    2.3761e-03  Tolerance :   1.0000e-06
  Last Orbital Gradient      ...    4.4998e-05  Tolerance :   5.0000e-05
  Last Orbital Rotation      ...    7.9462e-05  Tolerance :   5.0000e-05


----------------
ORBITAL ENERGIES
----------------

  NO   OCC          E(Eh)            E(eV) 
   0   2.0000     -20.619535      -561.0861 
   1   2.0000     -20.617908      -561.0418 
   2   2.0000     -20.569700      -559.7300 
   3   2.0000     -20.568141      -559.6876 
   4   2.0000     -11.418248      -310.7063 
   5   2.0000     -11.416830      -310.6677 
   6   2.0000     -11.312832      -307.8378 
   7   2.0000     -11.312306      -307.8235 
   8   2.0000     -11.311343      -307.7973 
   9   2.0000     -11.310740      -307.7809 
  10   2.0000     -11.309707      -307.7528 
  11   2.0000     -11.305472      -307.6375 
  12   2.0000     -11.302629      -307.5602 
  13   2.0000     -11.301577      -307.5315 
  14   2.0000     -11.300284      -307.4964 
  15   2.0000     -11.299521      -307.4756 
  16   2.0000     -11.290976      -307.2431 
  17   2.0000     -11.290891      -307.2408 
  18   2.0000     -11.290684      -307.2351 
  19   2.0000     -11.289990      -307.2162 
  20   2.0000     -11.289805      -307.2112 
  21   2.0000     -11.289779      -307.2105 
  22   2.0000     -11.289636      -307.2066 
  23   2.0000     -11.289558      -307.2045 
  24   2.0000     -11.289430      -307.2010 
  25   2.0000     -11.289405      -307.2003 
  26   2.0000     -11.289327      -307.1982 
  27   2.0000     -11.289290      -307.1972 
  28   2.0000     -11.289131      -307.1929 
  29   2.0000     -11.288975      -307.1886 
  30   2.0000     -11.288894      -307.1864 
  31   2.0000     -11.288867      -307.1857 
  32   2.0000     -11.288826      -307.1846 
  33   2.0000     -11.288767      -307.1830 
  34   2.0000     -11.288619      -307.1790 
  35   2.0000     -11.288537      -307.1767 
  36   2.0000     -11.288423      -307.1736 
  37   2.0000     -11.288330      -307.1711 
  38   2.0000     -11.288225      -307.1682 
  39   2.0000     -11.288117      -307.1653 
  40   2.0000     -11.288039      -307.1632 
  41   2.0000     -11.287972      -307.1613 
  42   2.0000     -11.287926      -307.1601 
  43   2.0000     -11.287869      -307.1585 
  44   2.0000     -11.287858      -307.1582 
  45   2.0000     -11.287748      -307.1552 
  46   2.0000     -11.287642      -307.1523 
  47   2.0000     -11.287573      -307.1505 
  48   2.0000     -11.287540      -307.1496 
  49   2.0000     -11.287439      -307.1468 
  50   2.0000     -11.287257      -307.1419 
  51   2.0000     -11.287152      -307.1390 
  52   2.0000     -11.286985      -307.1345 
  53   2.0000     -11.286964      -307.1339 
  54   2.0000     -11.286825      -307.1301 
  55   2.0000     -11.286648      -307.1253 
  56   2.0000     -11.286428      -307.1193 
  57   2.0000     -11.286162      -307.1121 
  58   2.0000     -11.285779      -307.1017 
  59   2.0000     -11.285591      -307.0965 
  60   2.0000     -11.285423      -307.0920 
  61   2.0000     -11.285344      -307.0898 
  62   2.0000     -11.285309      -307.0889 
  63   2.0000     -11.285174      -307.0852 
  64   2.0000     -11.284695      -307.0722 
  65   2.0000     -11.284171      -307.0579 
  66   2.0000     -11.282769      -307.0198 
  67   2.0000     -11.282693      -307.0177 
  68   2.0000     -11.281577      -306.9873 
  69   2.0000     -11.244168      -305.9694 
  70   2.0000     -11.242651      -305.9281 
  71   2.0000      -1.477596       -40.2074 
  72   2.0000      -1.467524       -39.9334 
  73   2.0000      -1.373285       -37.3690 
  74   2.0000      -1.370425       -37.2912 
  75   2.0000      -1.283731       -34.9321 
  76   2.0000      -1.261161       -34.3179 
  77   2.0000      -1.259012       -34.2595 
  78   2.0000      -1.258525       -34.2462 
  79   2.0000      -1.217080       -33.1184 
  80   2.0000      -1.215372       -33.0719 
  81   2.0000      -1.213071       -33.0093 
  82   2.0000      -1.212202       -32.9857 
  83   2.0000      -1.209097       -32.9012 
  84   2.0000      -1.170257       -31.8443 
  85   2.0000      -1.163238       -31.6533 
  86   2.0000      -1.161659       -31.6104 
  87   2.0000      -1.130564       -30.7642 
  88   2.0000      -1.129878       -30.7456 
  89   2.0000      -1.123019       -30.5589 
  90   2.0000      -1.122290       -30.5391 
  91   2.0000      -1.093554       -29.7571 
  92   2.0000      -1.068073       -29.0637 
  93   2.0000      -1.059060       -28.8185 
  94   2.0000      -1.058303       -28.7979 
  95   2.0000      -1.056001       -28.7353 
  96   2.0000      -1.052119       -28.6296 
  97   2.0000      -1.046138       -28.4669 
  98   2.0000      -1.043615       -28.3982 
  99   2.0000      -1.041329       -28.3360 
 100   2.0000      -1.039300       -28.2808 
 101   2.0000      -1.037944       -28.2439 
 102   2.0000      -1.003055       -27.2945 
 103   2.0000      -0.982255       -26.7285 
 104   2.0000      -0.972630       -26.4666 
 105   2.0000      -0.969933       -26.3932 
 106   2.0000      -0.968824       -26.3630 
 107   2.0000      -0.962902       -26.2019 
 108   2.0000      -0.948019       -25.7969 
 109   2.0000      -0.944356       -25.6972 
 110   2.0000      -0.935516       -25.4567 
 111   2.0000      -0.904552       -24.6141 
 112   2.0000      -0.895430       -24.3659 
 113   2.0000      -0.892081       -24.2748 
 114   2.0000      -0.884787       -24.0763 
 115   2.0000      -0.870825       -23.6963 
 116   2.0000      -0.863155       -23.4876 
 117   2.0000      -0.852749       -23.2045 
 118   2.0000      -0.849973       -23.1290 
 119   2.0000      -0.847310       -23.0565 
 120   2.0000      -0.845937       -23.0191 
 121   2.0000      -0.845581       -23.0094 
 122   2.0000      -0.844778       -22.9876 
 123   2.0000      -0.830288       -22.5933 
 124   2.0000      -0.808675       -22.0052 
 125   2.0000      -0.792974       -21.5779 
 126   2.0000      -0.782598       -21.2956 
 127   2.0000      -0.769641       -20.9430 
 128   2.0000      -0.761546       -20.7227 
 129   2.0000      -0.756113       -20.5749 
 130   2.0000      -0.754473       -20.5302 
 131   2.0000      -0.746543       -20.3145 
 132   2.0000      -0.741482       -20.1768 
 133   2.0000      -0.737205       -20.0604 
 134   2.0000      -0.735144       -20.0043 
 135   2.0000      -0.732011       -19.9190 
 136   2.0000      -0.730574       -19.8799 
 137   2.0000      -0.712141       -19.3784 
 138   2.0000      -0.710562       -19.3354 
 139   2.0000      -0.706008       -19.2115 
 140   2.0000      -0.704325       -19.1657 
 141   2.0000      -0.697239       -18.9728 
 142   2.0000      -0.694712       -18.9041 
 143   2.0000      -0.681520       -18.5451 
 144   2.0000      -0.677554       -18.4372 
 145   2.0000      -0.671055       -18.2603 
 146   2.0000      -0.669148       -18.2085 
 147   2.0000      -0.659437       -17.9442 
 148   2.0000      -0.654004       -17.7964 
 149   2.0000      -0.647784       -17.6271 
 150   2.0000      -0.644243       -17.5308 
 151   2.0000      -0.642657       -17.4876 
 152   2.0000      -0.640132       -17.4189 
 153   2.0000      -0.631385       -17.1809 
 154   2.0000      -0.629209       -17.1216 
 155   2.0000      -0.626776       -17.0555 
 156   2.0000      -0.624177       -16.9847 
 157   2.0000      -0.622324       -16.9343 
 158   2.0000      -0.620415       -16.8824 
 159   2.0000      -0.618175       -16.8214 
 160   2.0000      -0.617244       -16.7961 
 161   2.0000      -0.612932       -16.6787 
 162   2.0000      -0.610849       -16.6220 
 163   2.0000      -0.610026       -16.5997 
 164   2.0000      -0.606044       -16.4913 
 165   2.0000      -0.601607       -16.3706 
 166   2.0000      -0.599840       -16.3225 
 167   2.0000      -0.596531       -16.2324 
 168   2.0000      -0.590910       -16.0795 
 169   2.0000      -0.588636       -16.0176 
 170   2.0000      -0.586298       -15.9540 
 171   2.0000      -0.580854       -15.8059 
 172   2.0000      -0.577812       -15.7231 
 173   2.0000      -0.573268       -15.5994 
 174   2.0000      -0.572219       -15.5709 
 175   2.0000      -0.568656       -15.4739 
 176   2.0000      -0.561598       -15.2819 
 177   2.0000      -0.558407       -15.1950 
 178   2.0000      -0.558078       -15.1861 
 179   2.0000      -0.557831       -15.1794 
 180   2.0000      -0.553039       -15.0489 
 181   2.0000      -0.549570       -14.9546 
 182   2.0000      -0.543544       -14.7906 
 183   2.0000      -0.542858       -14.7719 
 184   2.0000      -0.532972       -14.5029 
 185   2.0000      -0.527111       -14.3434 
 186   2.0000      -0.525734       -14.3059 
 187   2.0000      -0.522639       -14.2217 
 188   2.0000      -0.515736       -14.0339 
 189   2.0000      -0.515048       -14.0152 
 190   2.0000      -0.513061       -13.9611 
 191   2.0000      -0.510011       -13.8781 
 192   2.0000      -0.508067       -13.8252 
 193   2.0000      -0.507103       -13.7990 
 194   2.0000      -0.503268       -13.6946 
 195   2.0000      -0.502477       -13.6731 
 196   2.0000      -0.502363       -13.6700 
 197   2.0000      -0.489728       -13.3262 
 198   2.0000      -0.480478       -13.0745 
 199   2.0000      -0.476012       -12.9529 
 200   2.0000      -0.474612       -12.9148 
 201   2.0000      -0.473006       -12.8711 
 202   2.0000      -0.467131       -12.7113 
 203   2.0000      -0.460973       -12.5437 
 204   2.0000      -0.457902       -12.4602 
 205   2.0000      -0.457389       -12.4462 
 206   2.0000      -0.452137       -12.3033 
 207   2.0000      -0.447755       -12.1840 
 208   2.0000      -0.360926        -9.8213 
 209   2.0000      -0.359348        -9.7784 
 210   2.0000      -0.358822        -9.7640 
 211   2.0000      -0.358043        -9.7429 
 212   2.0000      -0.351224        -9.5573 
 213   2.0000      -0.350023        -9.5246 
 214   2.0000      -0.349431        -9.5085 
 215   2.0000      -0.348349        -9.4791 
 216   2.0000      -0.342281        -9.3139 
 217   2.0000      -0.285931        -7.7806 
 218   2.0000      -0.285496        -7.7687 
 219   2.0000      -0.285294        -7.7632 
 220   2.0000      -0.284989        -7.7549 
 221   2.0000      -0.284402        -7.7390 
 222   0.0000      -0.026669        -0.7257 
 223   0.0000      -0.025110        -0.6833 
 224   0.0000      -0.024012        -0.6534 
 225   0.0000       0.033365         0.9079 
 226   0.0000       0.035470         0.9652 
 227   0.0000       0.038344         1.0434 
 228   0.0000       0.073372         1.9966 
 229   0.0000       0.088165         2.3991 
 230   0.0000       0.089800         2.4436 
 231   0.0000       0.090160         2.4534 
 232   0.0000       0.090402         2.4600 
*Only the first 10 virtual orbitals were printed.

                    ********************************
                    * MULLIKEN POPULATION ANALYSIS *
                    ********************************

-----------------------
MULLIKEN ATOMIC CHARGES
-----------------------
   0 C :    0.000930
   1 C :   -0.003702
   2 C :    0.005480
   3 C :   -0.002197
   4 C :   -0.001255
   5 C :   -0.002550
   6 C :   -0.011313
   7 C :   -0.002198
   8 C :   -0.001526
   9 C :    0.001176
  10 C :    0.000454
  11 C :   -0.001004
  12 C :    0.017232
  13 C :   -0.008687
  14 C :   -0.000003
  15 C :    0.008426
  16 C :   -0.000938
  17 C :   -0.000121
  18 C :   -0.002146
  19 C :   -0.002518
  20 C :    0.000301
  21 C :   -0.010106
  22 C :    0.014656
  23 C :    0.060477
  24 C :   -0.014093
  25 C :   -0.001191
  26 C :   -0.000673
  27 C :    0.003761
  28 C :    0.000275
  29 C :    0.002329
  30 C :   -0.006068
  31 C :    0.032632
  32 C :   -0.005799
  33 C :   -0.004902
  34 C :   -0.012441
  35 C :   -0.000933
  36 C :   -0.001373
  37 C :    0.002674
  38 C :   -0.001458
  39 C :   -0.000743
  40 C :   -0.006395
  41 C :   -0.024894
  42 C :    0.005713
  43 C :    0.095007
  44 C :   -0.011960
  45 C :   -0.002558
  46 C :    0.001085
  47 C :    0.001470
  48 C :   -0.001027
  49 C :   -0.004017
  50 C :    0.007266
  51 C :   -0.016632
  52 C :    0.010507
  53 C :   -0.001833
  54 C :   -0.004912
  55 C :   -0.001925
  56 C :    0.010762
  57 C :    0.004277
  58 C :   -0.010458
  59 C :    0.005486
  60 H :    0.055038
  61 C :   -0.098389
  62 H :    0.047351
  63 H :    0.053843
  64 C :    0.224119
  65 O :   -0.550696
  66 H :    0.063346
  67 C :    0.658375
  68 C :   -0.417025
  69 O :   -0.356987
  70 H :    0.063743
  71 C :    0.647959
  72 H :    0.054952
  73 O :   -0.548017
  74 H :    0.052486
  75 O :   -0.355491
  76 C :    0.213524
  77 C :   -0.062011
  78 H :    0.044413
  79 H :    0.052547
  80 H :    0.051090
Sum of atomic charges:   -0.0000000

--------------------------------
MULLIKEN REDUCED ORBITAL CHARGES
--------------------------------
  0 C s       :     3.071830  s :     3.071830
      pz      :     0.951057  p :     2.874244
      px      :     0.973544
      py      :     0.949642
      dz2     :     0.014781  d :     0.052996
      dxz     :     0.009920
      dyz     :     0.012096
      dx2y2   :     0.009403
      dxy     :     0.006797

  1 C s       :     3.075821  s :     3.075821
      pz      :     0.950109  p :     2.874949
      px      :     0.984240
      py      :     0.940600
      dz2     :     0.014560  d :     0.052932
      dxz     :     0.007976
      dyz     :     0.014547
      dx2y2   :     0.008187
      dxy     :     0.007661

  2 C s       :     3.070735  s :     3.070735
      pz      :     0.951720  p :     2.870648
      px      :     0.974551
      py      :     0.944377
      dz2     :     0.011368  d :     0.053138
      dxz     :     0.009115
      dyz     :     0.013648
      dx2y2   :     0.008600
      dxy     :     0.010406

  3 C s       :     3.073093  s :     3.073093
      pz      :     0.951963  p :     2.876189
      px      :     0.971887
      py      :     0.952339
      dz2     :     0.011276  d :     0.052915
      dxz     :     0.010407
      dyz     :     0.012721
      dx2y2   :     0.007712
      dxy     :     0.010799

  4 C s       :     3.072900  s :     3.072900
      pz      :     0.939241  p :     2.875357
      px      :     0.973094
      py      :     0.963022
      dz2     :     0.012868  d :     0.052998
      dxz     :     0.007898
      dyz     :     0.013770
      dx2y2   :     0.009699
      dxy     :     0.008762

  5 C s       :     3.069626  s :     3.069626
      pz      :     0.937253  p :     2.879780
      px      :     0.985440
      py      :     0.957087
      dz2     :     0.012416  d :     0.053143
      dxz     :     0.006339
      dyz     :     0.016152
      dx2y2   :     0.008362
      dxy     :     0.009875

  6 C s       :     3.056966  s :     3.056966
      pz      :     0.962493  p :     2.900692
      px      :     0.976642
      py      :     0.961556
      dz2     :     0.013018  d :     0.053655
      dxz     :     0.012333
      dyz     :     0.010447
      dx2y2   :     0.010226
      dxy     :     0.007630

  7 C s       :     3.071086  s :     3.071086
      pz      :     0.961118  p :     2.877896
      px      :     0.959086
      py      :     0.957691
      dz2     :     0.008669  d :     0.053216
      dxz     :     0.007122
      dyz     :     0.011617
      dx2y2   :     0.011307
      dxy     :     0.014501

  8 C s       :     3.072655  s :     3.072655
      pz      :     0.958530  p :     2.875834
      px      :     0.944458
      py      :     0.972846
      dz2     :     0.013122  d :     0.053037
      dxz     :     0.014376
      dyz     :     0.008609
      dx2y2   :     0.007334
      dxy     :     0.009597

  9 C s       :     3.073048  s :     3.073048
      pz      :     0.961887  p :     2.872629
      px      :     0.951604
      py      :     0.959138
      dz2     :     0.009310  d :     0.053147
      dxz     :     0.007060
      dyz     :     0.011460
      dx2y2   :     0.013839
      dxy     :     0.011478

 10 C s       :     3.072540  s :     3.072540
      pz      :     0.940938  p :     2.873989
      px      :     0.966739
      py      :     0.966311
      dz2     :     0.010072  d :     0.053017
      dxz     :     0.015193
      dyz     :     0.009152
      dx2y2   :     0.008815
      dxy     :     0.009785

 11 C s       :     3.075038  s :     3.075038
      pz      :     0.964581  p :     2.872731
      px      :     0.973268
      py      :     0.934882
      dz2     :     0.009639  d :     0.053236
      dxz     :     0.008963
      dyz     :     0.016765
      dx2y2   :     0.009838
      dxy     :     0.008030

 12 C s       :     3.055526  s :     3.055526
      pz      :     0.947864  p :     2.873628
      px      :     0.977167
      py      :     0.948597
      dz2     :     0.010407  d :     0.053614
      dxz     :     0.011690
      dyz     :     0.012917
      dx2y2   :     0.010204
      dxy     :     0.008395

 13 C s       :     3.080466  s :     3.080466
      pz      :     0.962994  p :     2.875192
      px      :     0.965246
      py      :     0.946953
      dz2     :     0.007895  d :     0.053028
      dxz     :     0.012195
      dyz     :     0.009602
      dx2y2   :     0.012967
      dxy     :     0.010369

 14 C s       :     3.066097  s :     3.066097
      pz      :     0.969549  p :     2.879774
      px      :     0.953494
      py      :     0.956731
      dz2     :     0.013877  d :     0.054131
      dxz     :     0.011431
      dyz     :     0.013994
      dx2y2   :     0.007391
      dxy     :     0.007439

 15 C s       :     3.063812  s :     3.063812
      pz      :     0.979423  p :     2.873929
      px      :     0.957135
      py      :     0.937370
      dz2     :     0.006807  d :     0.053834
      dxz     :     0.008618
      dyz     :     0.010516
      dx2y2   :     0.013540
      dxy     :     0.014352

 16 C s       :     3.072714  s :     3.072714
      pz      :     0.955547  p :     2.875253
      px      :     0.941765
      py      :     0.977941
      dz2     :     0.013292  d :     0.052971
      dxz     :     0.014595
      dyz     :     0.010599
      dx2y2   :     0.008202
      dxy     :     0.006283

 17 C s       :     3.072617  s :     3.072617
      pz      :     0.952929  p :     2.874577
      px      :     0.953754
      py      :     0.967893
      dz2     :     0.008150  d :     0.052926
      dxz     :     0.014843
      dyz     :     0.007875
      dx2y2   :     0.012306
      dxy     :     0.009753

 18 C s       :     3.072563  s :     3.072563
      pz      :     0.976474  p :     2.876588
      px      :     0.947012
      py      :     0.953102
      dz2     :     0.007149  d :     0.052995
      dxz     :     0.009452
      dyz     :     0.009618
      dx2y2   :     0.012898
      dxy     :     0.013879

 19 C s       :     3.071534  s :     3.071534
      pz      :     0.969886  p :     2.878075
      px      :     0.939920
      py      :     0.968269
      dz2     :     0.009718  d :     0.052908
      dxz     :     0.012977
      dyz     :     0.008483
      dx2y2   :     0.011939
      dxy     :     0.009792

 20 C s       :     3.070829  s :     3.070829
      pz      :     0.968627  p :     2.875908
      px      :     0.968987
      py      :     0.938294
      dz2     :     0.009756  d :     0.052962
      dxz     :     0.008345
      dyz     :     0.008478
      dx2y2   :     0.011148
      dxy     :     0.015235

 21 C s       :     3.070538  s :     3.070538
      pz      :     0.967121  p :     2.886850
      px      :     0.948663
      py      :     0.971066
      dz2     :     0.009785  d :     0.052717
      dxz     :     0.011917
      dyz     :     0.010605
      dx2y2   :     0.009508
      dxy     :     0.010903

 22 C s       :     3.015237  s :     3.015237
      pz      :     0.929264  p :     2.919202
      px      :     0.985256
      py      :     1.004682
      dz2     :     0.010474  d :     0.050905
      dxz     :     0.008904
      dyz     :     0.007663
      dx2y2   :     0.011085
      dxy     :     0.012780

 23 C s       :     3.006288  s :     3.006288
      pz      :     0.980661  p :     2.880698
      px      :     0.924224
      py      :     0.975813
      dz2     :     0.013429  d :     0.052537
      dxz     :     0.013273
      dyz     :     0.010097
      dx2y2   :     0.007044
      dxy     :     0.008694

 24 C s       :     3.075647  s :     3.075647
      pz      :     0.982560  p :     2.884884
      px      :     0.961575
      py      :     0.940749
      dz2     :     0.005666  d :     0.053561
      dxz     :     0.009698
      dyz     :     0.006457
      dx2y2   :     0.016624
      dxy     :     0.015116

 25 C s       :     3.072281  s :     3.072281
      pz      :     0.945510  p :     2.875909
      px      :     0.948829
      py      :     0.981570
      dz2     :     0.013088  d :     0.053001
      dxz     :     0.014605
      dyz     :     0.008632
      dx2y2   :     0.009062
      dxy     :     0.007615

 26 C s       :     3.072238  s :     3.072238
      pz      :     0.951046  p :     2.875419
      px      :     0.957394
      py      :     0.966980
      dz2     :     0.013344  d :     0.053015
      dxz     :     0.011991
      dyz     :     0.006663
      dx2y2   :     0.009376
      dxy     :     0.011641

 27 C s       :     3.069045  s :     3.069045
      pz      :     0.978962  p :     2.874120
      px      :     0.946355
      py      :     0.948803
      dz2     :     0.005771  d :     0.053073
      dxz     :     0.009012
      dyz     :     0.006990
      dx2y2   :     0.017709
      dxy     :     0.013591

 28 C s       :     3.072403  s :     3.072403
      pz      :     0.953370  p :     2.874297
      px      :     0.952010
      py      :     0.968917
      dz2     :     0.012904  d :     0.053025
      dxz     :     0.011496
      dyz     :     0.006901
      dx2y2   :     0.009890
      dxy     :     0.011834

 29 C s       :     3.071522  s :     3.071522
      pz      :     0.972693  p :     2.873101
      px      :     0.938751
      py      :     0.961657
      dz2     :     0.007376  d :     0.053048
      dxz     :     0.007311
      dyz     :     0.009973
      dx2y2   :     0.011933
      dxy     :     0.016454

 30 C s       :     3.070993  s :     3.070993
      pz      :     0.979510  p :     2.881693
      px      :     0.946792
      py      :     0.955391
      dz2     :     0.008209  d :     0.053381
      dxz     :     0.007352
      dyz     :     0.010129
      dx2y2   :     0.015517
      dxy     :     0.012175

 31 C s       :     3.049986  s :     3.049986
      pz      :     0.940150  p :     2.865866
      px      :     0.953246
      py      :     0.972470
      dz2     :     0.012121  d :     0.051516
      dxz     :     0.011927
      dyz     :     0.006408
      dx2y2   :     0.009055
      dxy     :     0.012005

 32 C s       :     3.071333  s :     3.071333
      pz      :     0.971284  p :     2.881559
      px      :     0.905196
      py      :     1.005078
      dz2     :     0.011684  d :     0.052908
      dxz     :     0.010399
      dyz     :     0.012661
      dx2y2   :     0.008650
      dxy     :     0.009514

 33 C s       :     3.032895  s :     3.032895
      pz      :     0.970158  p :     2.921600
      px      :     0.952690
      py      :     0.998751
      dz2     :     0.008897  d :     0.050407
      dxz     :     0.011903
      dyz     :     0.007853
      dx2y2   :     0.012099
      dxy     :     0.009655

 34 C s       :     3.079923  s :     3.079923
      pz      :     0.970916  p :     2.880772
      px      :     0.936439
      py      :     0.973417
      dz2     :     0.007225  d :     0.051746
      dxz     :     0.007289
      dyz     :     0.009699
      dx2y2   :     0.011319
      dxy     :     0.016214

 35 C s       :     3.073033  s :     3.073033
      pz      :     0.944519  p :     2.874903
      px      :     0.950789
      py      :     0.979594
      dz2     :     0.013611  d :     0.052997
      dxz     :     0.014309
[...]
 34 C      6.0124     6.0000    -0.0124     3.9548     3.9548    -0.0000
 35 C      6.0009     6.0000    -0.0009     3.9036     3.9036     0.0000
 36 C      6.0014     6.0000    -0.0014     3.9019     3.9019     0.0000
 37 C      5.9973     6.0000     0.0027     3.9015     3.9015     0.0000
 38 C      6.0015     6.0000    -0.0015     3.9031     3.9031     0.0000
 39 C      6.0007     6.0000    -0.0007     3.9021     3.9021     0.0000
 40 C      6.0064     6.0000    -0.0064     3.9167     3.9167    -0.0000
 41 C      6.0249     6.0000    -0.0249     3.9474     3.9474     0.0000
 42 C      5.9943     6.0000     0.0057     3.8253     3.8253     0.0000
 43 C      5.9050     6.0000     0.0950     3.8970     3.8970    -0.0000
 44 C      6.0120     6.0000    -0.0120     3.9199     3.9199     0.0000
 45 C      6.0026     6.0000    -0.0026     3.9039     3.9039    -0.0000
 46 C      5.9989     6.0000     0.0011     3.8998     3.8998    -0.0000
 47 C      5.9985     6.0000     0.0015     3.9002     3.9002    -0.0000
 48 C      6.0010     6.0000    -0.0010     3.9033     3.9033     0.0000
 49 C      6.0040     6.0000    -0.0040     3.9336     3.9336     0.0000
 50 C      5.9927     6.0000     0.0073     3.9103     3.9103    -0.0000
 51 C      6.0166     6.0000    -0.0166     3.9567     3.9567     0.0000
 52 C      5.9895     6.0000     0.0105     3.8966     3.8966    -0.0000
 53 C      6.0018     6.0000    -0.0018     3.9011     3.9011    -0.0000
 54 C      6.0049     6.0000    -0.0049     3.9037     3.9037     0.0000
 55 C      6.0019     6.0000    -0.0019     3.9024     3.9024     0.0000
 56 C      5.9892     6.0000     0.0108     3.9088     3.9088    -0.0000
 57 C      5.9957     6.0000     0.0043     3.9215     3.9215    -0.0000
 58 C      6.0105     6.0000    -0.0105     3.9391     3.9391     0.0000
 59 C      5.9945     6.0000     0.0055     3.9020     3.9020    -0.0000
 60 H      0.9450     1.0000     0.0550     0.9797     0.9797    -0.0000
 61 C      6.0984     6.0000    -0.0984     3.9742     3.9742     0.0000
 62 H      0.9526     1.0000     0.0474     0.9811     0.9811    -0.0000
 63 H      0.9462     1.0000     0.0538     0.9788     0.9788    -0.0000
 64 C      5.7759     6.0000     0.2241     3.8069     3.8069    -0.0000
 65 O      8.5507     8.0000    -0.5507     1.8998     1.8998    -0.0000
 66 H      0.9367     1.0000     0.0633     0.9893     0.9893     0.0000
 67 C      5.3416     6.0000     0.6584     3.9986     3.9986     0.0000
 68 C      6.4170     6.0000    -0.4170     3.5187     3.5187    -0.0000
 69 O      8.3570     8.0000    -0.3570     2.1127     2.1127    -0.0000
 70 H      0.9363     1.0000     0.0637     0.9884     0.9884    -0.0000
 71 C      5.3520     6.0000     0.6480     4.0507     4.0507     0.0000
 72 H      0.9450     1.0000     0.0550     0.9818     0.9818     0.0000
 73 O      8.5480     8.0000    -0.5480     1.8951     1.8951    -0.0000
 74 H      0.9475     1.0000     0.0525     0.9823     0.9823    -0.0000
 75 O      8.3555     8.0000    -0.3555     2.1096     2.1096     0.0000
 76 C      5.7865     6.0000     0.2135     3.8149     3.8149    -0.0000
 77 C      6.0620     6.0000    -0.0620     3.9595     3.9595     0.0000
 78 H      0.9556     1.0000     0.0444     0.9801     0.9801     0.0000
 79 H      0.9475     1.0000     0.0525     0.9816     0.9816     0.0000
 80 H      0.9489     1.0000     0.0511     0.9815     0.9815    -0.0000

  Mayer bond orders larger than 0.100000
B(  0-C ,  1-C ) :   1.1826 B(  0-C ,  3-C ) :   1.4840 B(  0-C ,  4-C ) :   1.1772 
B(  1-C ,  2-C ) :   1.4850 B(  1-C ,  5-C ) :   1.1799 B(  2-C ,  6-C ) :   1.1847 
B(  2-C ,  7-C ) :   1.1797 B(  3-C ,  8-C ) :   1.1788 B(  3-C ,  9-C ) :   1.1807 
B(  4-C , 10-C ) :   1.4888 B(  4-C , 11-C ) :   1.1787 B(  5-C , 11-C ) :   1.1782 
B(  5-C , 12-C ) :   1.4886 B(  6-C , 13-C ) :   1.1854 B(  6-C , 14-C ) :   1.4823 
B(  7-C ,  9-C ) :   1.4932 B(  7-C , 15-C ) :   1.1693 B(  8-C , 16-C ) :   1.4901 
B(  8-C , 17-C ) :   1.1762 B(  9-C , 18-C ) :   1.1712 B( 10-C , 16-C ) :   1.1778 
B( 10-C , 19-C ) :   1.1787 B( 11-C , 20-C ) :   1.4890 B( 12-C , 14-C ) :   1.1711 
B( 12-C , 21-C ) :   1.1774 B( 13-C , 15-C ) :   1.1803 B( 13-C , 22-C ) :   1.5193 
B( 14-C , 23-C ) :   1.2031 B( 15-C , 24-C ) :   1.4897 B( 16-C , 25-C ) :   1.1768 
B( 17-C , 18-C ) :   1.1833 B( 17-C , 26-C ) :   1.4856 B( 18-C , 27-C ) :   1.4904 
B( 19-C , 28-C ) :   1.1782 B( 19-C , 29-C ) :   1.4868 B( 20-C , 29-C ) :   1.1783 
B( 20-C , 30-C ) :   1.1779 B( 21-C , 30-C ) :   1.4943 B( 21-C , 31-C ) :   1.1899 
B( 22-C , 32-C ) :   1.1407 B( 22-C , 33-C ) :   1.1604 B( 23-C , 31-C ) :   1.1315 
B( 23-C , 32-C ) :   1.5561 B( 24-C , 27-C ) :   1.1718 B( 24-C , 34-C ) :   1.1866 
B( 25-C , 28-C ) :   1.1782 B( 25-C , 35-C ) :   1.4895 B( 26-C , 35-C ) :   1.1758 
B( 26-C , 36-C ) :   1.1832 B( 27-C , 37-C ) :   1.1810 B( 28-C , 38-C ) :   1.4888 
B( 29-C , 39-C ) :   1.1774 B( 30-C , 40-C ) :   1.1747 B( 31-C , 41-C ) :   1.5061 
B( 32-C , 42-C ) :   0.1044 B( 32-C , 68-C ) :   0.9439 B( 33-C , 34-C ) :   1.5056 
B( 33-C , 43-C ) :   1.1496 B( 34-C , 44-C ) :   1.1834 B( 35-C , 45-C ) :   1.1794 
B( 36-C , 37-C ) :   1.4883 B( 36-C , 46-C ) :   1.1735 B( 37-C , 44-C ) :   1.1740 
B( 38-C , 47-C ) :   1.1779 B( 38-C , 48-C ) :   1.1783 B( 39-C , 40-C ) :   1.1805 
B( 39-C , 48-C ) :   1.4875 B( 40-C , 49-C ) :   1.4969 B( 41-C , 49-C ) :   1.1844 
B( 41-C , 50-C ) :   1.1386 B( 42-C , 43-C ) :   1.1536 B( 42-C , 50-C ) :   1.5326 
B( 42-C , 68-C ) :   0.9490 B( 43-C , 51-C ) :   1.5254 B( 44-C , 52-C ) :   1.4948 
B( 45-C , 46-C ) :   1.1790 B( 45-C , 47-C ) :   1.4852 B( 46-C , 53-C ) :   1.4923 
B( 47-C , 54-C ) :   1.1807 B( 48-C , 55-C ) :   1.1802 B( 49-C , 56-C ) :   1.1809 
B( 50-C , 57-C ) :   1.1981 B( 51-C , 52-C ) :   1.1736 B( 51-C , 58-C ) :   1.1840 
B( 52-C , 53-C ) :   1.1703 B( 53-C , 59-C ) :   1.1781 B( 54-C , 55-C ) :   1.1823 
B( 54-C , 59-C ) :   1.4839 B( 55-C , 56-C ) :   1.4842 B( 56-C , 57-C ) :   1.1760 
B( 57-C , 58-C ) :   1.4841 B( 58-C , 59-C ) :   1.1872 B( 60-H , 61-C ) :   0.9792 
B( 61-C , 62-H ) :   0.9816 B( 61-C , 64-C ) :   1.0535 B( 61-C , 66-H ) :   0.9818 
B( 63-H , 64-C ) :   0.9815 B( 64-C , 65-O ) :   0.7707 B( 64-C , 70-H ) :   0.9775 
B( 65-O , 67-C ) :   1.1318 B( 67-C , 68-C ) :   0.9225 B( 67-C , 69-O ) :   2.0367 
B( 68-C , 71-C ) :   0.9376 B( 71-C , 73-O ) :   1.1254 B( 71-C , 75-O ) :   2.0414 
B( 72-H , 77-C ) :   0.9816 B( 73-O , 76-C ) :   0.7809 B( 74-H , 76-C ) :   0.9822 
B( 76-C , 77-C ) :   1.0457 B( 76-C , 80-H ) :   0.9823 B( 77-C , 78-H ) :   0.9801 
B( 77-C , 79-H ) :   0.9817 

-------
TIMINGS
-------

Total SCF time: 0 days 0 hours 3 min 39 sec 

Total time                  ....     219.808 sec
Sum of individual times     ....     219.890 sec  (100.0%)

SCF preparation             ....       0.971 sec  (  0.4%)
Fock matrix formation       ....     212.438 sec  ( 96.6%)
  Startup                   ....       0.213 sec  (  0.1% of F)
  Coulomb+Exchange Fock     ....     211.839 sec  ( 99.7% of F)
Diagonalization             ....       0.000 sec  (  0.0%)
Density matrix formation    ....       0.916 sec  (  0.4%)
Total Energy calculation    ....       0.264 sec  (  0.1%)
Population analysis         ....       0.233 sec  (  0.1%)
Orbital Transformation      ....       0.666 sec  (  0.3%)
Orbital Orthonormalization  ....       0.000 sec  (  0.0%)
DIIS solution               ....       2.987 sec  (  1.4%)
SOSCF solution              ....       1.365 sec  (  0.6%)
Finished LeanSCF after 220.0 sec

Maximum memory used throughout the entire LEANSCF-calculation: 107.5 MB


           ************************************************************
           *        Program running with 34 parallel MPI-processes    *
           *              working on a common directory               *
           ************************************************************

------------------------------------------------------------------------------
                                ORCA  MP2 
------------------------------------------------------------------------------

Freezing NCore=142 chemical core electrons

----------
MP2 ENERGY (disk based algorithm)
----------

Dimension of the basis                      ... 1044
Memory devoted to MP2                       ... 4096 MB   
Data format for buffers                     ... DOUBLE
Compression type for matrix containers      ... UNCOMPRESSED

-------------------------
SHARK HALF TRANSFORMATION (Exchange order)
-------------------------

Number of basis functions                   ...   1044
Number of operators                         ...      1
   Operator  0:   71- 221 (p-index in (p*|q*))
   Operator  0:   71- 221 (q-index in (p*|q*)
Integral generator used                     ... SHARK
Contraction scheme used                     ... SEGMENTED CONTRACTION
MaxCore in resort                           ...   4096 MB

Half transformed integrals for op=   0      ... c60malonicester.SHARK_MNPQ0.tmp
Resorted half transformed integrals         ... c60malonicester.KAO_aa.tmp

Half trafo (segmented) done. Total time =364.4 sec. integrals=108.8 sec trafo=125.0 sec

----------------------
SHARK INTEGRAL SORTING (Exchange)
----------------------

Input container                             ... c60malonicester.SHARK_MNPQ0.tmp
Output container                            ... c60malonicester.KAO_aa.tmp
Range of AO-indices                         ...    0 - 1043
Range of bra indices i                      ...   71 -  221
Range of ket indices j                      ...   71 -  221
Symmetric i,j range                         ... YES
Number of (i,j) pairs generated             ... 11476
Max Core memory in MB                       ...   1024

Available core memory in MB                 ...    916.33
MB needed for one item                      ...      8.32
Number of items                             ...       338
Number of batches                           ...         4
Items treated per batch                     ...       110
Batch   0                                   ...      0-   109 (   110)
Batch   1                                   ...    110-   219 (   110)
Batch   2                                   ...    220-   329 (   110)
Batch   3                                   ...    330-   337 (     8)
   => Closing output file and leaving
done (536.6 sec)

SHARK half integral transformation done. Total time =902.0 sec.


Finished integral transformation - now doing MP2 part

OPERATOR COMBINATION   0   0: ij=( 71..221, 71..221)
Process  1:   Internal MO  76
Process  4:   Internal MO  91
Process  7:   Internal MO 106
Process 13:   Internal MO 136
Process 19:   Internal MO 166
Process 25:   Internal MO 196
Process 16:   Internal MO 151
Process 22:   Internal MO 181
Process 10:   Internal MO 121
Process 28:   Internal MO 211
Process  0:   Internal MO  73
Process  2:   Internal MO  82
Process  1:   Internal MO  79
Process  5:   Internal MO  97
Process  3:   Internal MO  88
Process  8:   Internal MO 112
Process  2:   Internal MO  85
Process 11:   Internal MO 127
Process  6:   Internal MO 103
Process  4:   Internal MO  94
Process 14:   Internal MO 142
Process 17:   Internal MO 157
Process  9:   Internal MO 118
Process 20:   Internal MO 172
Process  5:   Internal MO 100
Process  7:   Internal MO 109
Process 23:   Internal MO 187
Process 12:   Internal MO 133
Process 26:   Internal MO 202
Process 29:   Internal MO 217
Process 15:   Internal MO 148
Process 10:   Internal MO 124
Process  8:   Internal MO 115
Process 18:   Internal MO 163
Process 13:   Internal MO 139
Process 21:   Internal MO 178
Process 11:   Internal MO 130
Process 24:   Internal MO 193
Process 16:   Internal MO 154
Process 27:   Internal MO 208
Process 19:   Internal MO 169
Process 14:   Internal MO 145
Process 22:   Internal MO 184
Process 17:   Internal MO 160
Process 25:   Internal MO 199
Process 20:   Internal MO 175
Process 28:   Internal MO 214
Process 23:   Internal MO 190
Process 26:   Internal MO 205
Process 29:   Internal MO 220
-----------------------------------------------
 MP2 CORRELATION ENERGY   :     -9.466680114 Eh
-----------------------------------------------


-------
TIMINGS
-------
Total time                : 1015.926 sec
Integral trafo            :  901.977 sec ( 88.8%)
K(i,j)                    :    0.747 sec (  0.1%)
T(i,j)                    :    0.019 sec (  0.0%)

---------------------------------------
MP2 TOTAL ENERGY:    -2849.452955469 Eh
---------------------------------------

Maximum memory used throughout the entire MP2-calculation: 2024.4 MB

-------------------------   --------------------
FINAL SINGLE POINT ENERGY     -2849.452955469425
-------------------------   --------------------



           ************************************************************
           *        Program running with 34 parallel MPI-processes    *
           *              working on a common directory               *
           ************************************************************

------------------------------------------------------------------------------
                              ORCA PROPERTY CALCULATIONS
------------------------------------------------------------------------------

GBWName                                 ... c60malonicester.gbw
Number of atoms                         ...     81
Number of basis functions               ...   1044
Max core memory                         ...   1024 MB

Electric properties:
Dipole moment                           ... YES
Quadrupole moment                       ...  NO
Static polarizability (Dipole/Dipole)   ...  NO
Static polarizability (Dipole/Quad.)    ...  NO
Static polarizability (Quad./Quad.)     ...  NO
Static polarizability (Velocity)        ...  NO

Atomic electric properties:
Dipole moment                           ...  NO
Quadrupole moment                       ...  NO
Static polarizability                   ...  NO

Choice of electric origin               ... Center of mass
Position of electric origin             ...    -0.136302     1.099389     0.113696

General magnetic properties:
Magnetizability                         ...  NO

EPR properties:
g-Tensor (aka g-matrix)                 ...  NO
Zero-Field splitting spin-orbit         ...  NO
Zero-field splitting spin-spin          ...  NO
Hyperfine couplings                     ...  NO (   0 nuclei)
Quadrupole couplings                    ...  NO (   0 nuclei)
Contact density                         ...  NO (   0 nuclei)

NMR properties:
Chemical shifts                         ...  NO (   0 nuclei)
Spin-rotation constants                 ...  NO (   0 nuclei)
Spin-spin couplings                     ...  NO (   0 nuclei,    0 pairs)

Choice of magnetic origin               ... GIAO
Position of magnetic origin             ...     0.000000     0.000000     0.000000

Properties with geometric perturbations:
SCF Hessian                             ...  NO
IR spectrum                             ...  NO
VCD spectrum                            ...  NO
X-ray spectroscopy properties:
SCF XES/XAS/RIXS spectra                ...  NO


-------------
DIPOLE MOMENT
-------------

Method             : SCF
Type of density    : Electron Density
Multiplicity       :   1
Irrep              :   0
Energy             : -2839.9862753554243682 Eh
Relativity type    : 
Basis              : AO
                                X                 Y                 Z
Electronic contribution:     11.187517154     -57.787023782      -6.971916092
Nuclear contribution   :    -11.394971416      59.199487493       7.125078701
                        -----------------------------------------
Total Dipole Moment    :     -0.207454262       1.412463711       0.153162609
                        -----------------------------------------
Magnitude (a.u.)       :      1.435809803
Magnitude (Debye)      :      3.649538485



--------------------
Rotational spectrum 
--------------------
 
Rotational constants in cm-1:             0.002415             0.001417             0.001351 
Rotational constants in MHz :            72.393265            42.480838            40.503316 

Dipole components along the rotational axes: 
x,y,z [a.u.] :    -1.435148    -0.037809     0.021696 
x,y,z [Debye]:    -3.647856    -0.096103     0.055148 

 

Dipole moment calculation done in   0.1 sec 

Maximum memory used throughout the entire PROP-calculation: 113.0 MB

--------------------------------
SUGGESTED CITATIONS FOR THIS RUN
--------------------------------

Below you find a list of papers that are relevant to this ORCA run
We neither can nor want to force you to cite these papers, but we appreciate if you do
You receive ORCA, which is the product of decades of hard work by many enthusiastic individuals, for free
The only thing we kindly ask in return is that you cite our papers,
We deeply appreciate it, if you show your appreciation for ORCA by not just citing the generic ORCA reference.

Please note that relegating all ORCA citations to the supporting information does *not* help us.
SI sections are not indexed - citations you put there will not count into any citation statistics
But we need these citations in order to attract the funding resources that allow us to do what we are doing

Therefore, if you are a happy ORCA user, please consider citing a few of the papers listed below in the main body of your paper

In addition to the list printed below, the program has created the file c60malonicester.bibtex that contains the list in bibtex format
You can import this file easily into all common literature databanks and citation aid programs


List of essential papers. We consider these as the minimum necessary citations

  1. Neese,F.
     Software update: the ORCA program system, version 5.0
     WIRES Comput. Molec. Sci., 2022 12(1)e1606
     doi.org/10.1002/wcms.1606

List of papers to cite with high priority. The work reported in these papers was absolutely
necessary for this run to complete.
Our perspective: the developers of density functionals and basis sets usually get cited in chemistry papers
Good! But without the algorithms to do something with them, the functionals or basis sets would not do anything.
Hence, in our opinion, the algorithm design and method developments papers are equally worthy of getting cited

  1. Neese,F.
     The SHARK Integral Generation and Digestion System
     J. Comp. Chem., 2022  1-16
     doi.org/10.1002/jcc.26942

List of suggested additional citations. These are papers that are important in the 'surrounding' of 
of this run, or papers that preceded the highly important papers. If you like your results we are grateful for a citation.

  1. Neese,F.
     The ORCA program system
     WIRES Comput. Molec. Sci., 2012 2(1)73-78
     doi.org/10.1002/wcms.81
  2. Neese,F.
     Software update: the ORCA program system, version 4.0
     WIRES Comput. Molec. Sci., 2018 8(1)1-6
     doi.org/10.1002/wcms.1327
  3. Neese,F.; Wennmohs,F.; Becker,U.; Riplinger,C.
     The ORCA quantum chemistry program package
     J. Chem. Phys., 2020 152 Art. No. L224108
     doi.org/10.1063/5.0004608

List of optional additional citations

  1. Neese,F.
     Approximate second-order SCF convergence for spin unrestricted wavefunctions
     Chem. Phys. Lett., 2000 325(1-3)93-98
     doi.org/10.1016/s0009-2614(00)00662-x

Timings for individual modules:

Sum of individual times          ...     1247.322 sec (=  20.789 min)
Startup calculation              ...        4.541 sec (=   0.076 min)   0.4 %
SCF iterations                   ...      223.646 sec (=   3.727 min)  17.9 %
Property calculations            ...        1.656 sec (=   0.028 min)   0.1 %
MP2 module                       ...     1017.480 sec (=  16.958 min)  81.6 %
                             ****ORCA TERMINATED NORMALLY****
TOTAL RUN TIME: 0 days 0 hours 20 minutes 48 seconds 674 msec
