
                                 *****************
                                 * O   R   C   A *
                                 *****************

                                            #,                                       
                                            ###                                      
                                            ####                                     
                                            #####                                    
                                            ######                                   
                                           ########,                                 
                                     ,,################,,,,,                         
                               ,,#################################,,                 
                          ,,##########################################,,             
                       ,#########################################, ''#####,          
                    ,#############################################,,   '####,        
                  ,##################################################,,,,####,       
                ,###########''''           ''''###############################       
              ,#####''   ,,,,##########,,,,          '''####'''          '####       
            ,##' ,,,,###########################,,,                        '##       
           ' ,,###''''                  '''############,,,                           
         ,,##''                                '''############,,,,        ,,,,,,###''
      ,#''                                            '''#######################'''  
     '                                                          ''''####''''         
             ,#######,   #######,   ,#######,      ##                                
            ,#'     '#,  ##    ##  ,#'     '#,    #''#        ,####,   ,####,        
            ##       ##  ##   ,#'  ##            #'  '#       #'       #'  '#        
            ##       ##  #######   ##           ,######,      #####,   #    #        
            '#,     ,#'  ##    ##  '#,     ,#' ,#      #,     #,   #   #,  ,#        
             '#######'   ##     ##  '#######'  #'      '#     '####' # '####'        



                #########################################################
                #                        -***-                          #
                #          Department of theory and spectroscopy        #
                #                                                       #
                #                      Frank Neese                      #
                #                                                       #
                #     Directorship, Architecture, Infrastructure        #
                #                    SHARK, DRIVERS                     #
                #        Core code/Algorithms in most modules           #
                #                                                       #
                #        Max Planck Institute fuer Kohlenforschung      #
                #                Kaiser Wilhelm Platz 1                 #
                #                 D-45470 Muelheim/Ruhr                 #
                #                      Germany                          #
                #                                                       #
                #                  All rights reserved                  #
                #                        -***-                          #
                #########################################################


                         Program Version 6.0.1  -  RELEASE   -


 With contributions from (in alphabetic order):
[Max-Planck-Institut fuer Kohlenforschung]                               
  Daniel Aravena         : Magnetic Suceptibility                        
  Michael Atanasov       : Ab Initio Ligand Field Theory (pilot matlab implementation)
  Alexander A. Auer      : GIAO ZORA, VPT2 properties, NMR spectrum      
  Ute Becker             : All parallelization in ORCA, NUMFREQ, NUMCALC 
  Giovanni Bistoni       : ED, misc. LED, open-shell LED, HFLD           
  Martin Brehm           : Molecular dynamics                            
  Dmytro Bykov           : pre 5.0 version of the SCF Hessian            
  Marcos Casanova-Páez   : Triplet and SCS-CIS(D). UHF-(DLPNO)-IP/EA/STEOM-CCSD. UHF-CVS-IP/STEOM-CCSD   
  Vijay G. Chilkuri      : MRCI spin determinant printing, contributions to CSF-ICE 
  Pauline Colinet        : FMM embedding                                 
  Dipayan Datta          : RHF DLPNO-CCSD density                        
  Achintya Kumar Dutta   : EOM-CC, STEOM-CC                              
  Nicolas Foglia         : Exact transition moments, OPA infrastructure, MCD improvements    
  Dmitry Ganyushin       : Spin-Orbit,Spin-Spin,Magnetic field MRCI      
  Miquel Garcia-Rates    : C-PCM and meta-GGA Hessian, CCSD/C-PCM, Gaussian charge scheme 
  Tiago L. C. Gouveia    : GS-ROHF, GS-ROCIS                             
  Yang Guo               : DLPNO-NEVPT2, F12-NEVPT2, CIM, IAO-localization        
  Andreas Hansen         : Spin unrestricted coupled pair/coupled cluster methods 
  Ingolf Harden          : AUTO-CI MPn and infrastructure                
  Benjamin Helmich-Paris : MC-RPA, TRAH-(SCF,CASSCF), AVAS, COSX integrals, SCF dyn. polar. 
  Lee Huntington         : MR-EOM, pCC                                   
  Robert Izsak           : Overlap fitted RIJCOSX, COSX-SCS-MP3, EOM     
  Riya Kayal             : Wick's Theorem for AUTO-CI, AUTO-CI UHF-CCSDT 
  Emily Kempfer          : AUTO-CI, RHF CISDT and CCSDT                  
  Christian Kollmar      : KDIIS, OOCD, Brueckner-CCSD(T), CCSD density, CASPT2, CASPT2-K, improved NEVPT2 
  Axel Koslowski         : Symmetry handling                             
  Simone Kossmann        : meta-GGA functionals, TD-DFT gradient, OOMP2, (MP2 Hessian; deprecated post 5.0) 
  Lucas Lang             : DCDCAS                                        
  Marvin Lechner         : AUTO-CI (C++ implementation), FIC-MRCC        
  Spencer Leger          : CASSCF response                               
  Dagmar Lenk            : GEPOL surface, SMD, ORCA-2-JSON               
  Dimitrios Liakos       : Extrapolation schemes; Compound Job, initial MDCI parallelization 
  Dimitrios Manganas     : Further ROCIS development; embedding schemes. LFT, Crystal Embedding 
  Dimitrios Pantazis     : SARC Basis sets                               
  Anastasios Papadopoulos: AUTO-CI, single reference methods and gradients 
  Taras Petrenko         : pre 6.0 DFT Hessian and TD-DFT gradient, (ASA, deprecated), ECA, 1-Electron XAS/XES, NRVS 
  Peter Pinski           : DLPNO-MP2, DLPNO-MP2 Gradient                 
  Christoph Reimann      : Effective Core Potentials                     
  Marius Retegan         : Local ZFS, SOC                                
  Christoph Riplinger    : Optimizer, TS searches, QM/MM, DLPNO-CCSD(T), (RO)-DLPNO pert. Triples 
  Michael Roemelt        : Original ROCIS implementation                 
  Masaaki Saitow         : Open-shell DLPNO-CCSD energy and density      
  Barbara Sandhoefer     : DKH picture change effects                    
  Kantharuban Sivalingam : CASSCF convergence/infrastructure, NEVPT2 and variants, FIC-MRCI 
  Bernardo de Souza      : ESD, SOC TD-DFT                               
  Georgi L. Stoychev     : AutoAux, RI-MP2 NMR, DLPNO-MP2 response, X2C  
  Van Anh Tran           : RI-MP2 g-tensors                              
  Willem Van den Heuvel  : Paramagnetic NMR                              
  Zikuan Wang            : NOTCH, Electric field optimization            
  Frank Wennmohs         : Technical directorship and infrastructure     
  Hang Xu                : AUTO-CI-Response properties                   
                                                                         
[FACCTs GmbH]                                                            
  Markus Bursch, Miquel Garcia-Rates, Christoph Riplinger, Bernardo de Souza, Georgi L. Stoychev 
                                                                 
  APM, Basis sets (HGBS, AHGBS, def-TZVP (Ac-Lr), def2-XVPD (La-Lu)), CI-OPT, improved COSX, DLPNO-Multilevel,           
  DOCKER, DRACO, updates on ESD, GOAT, IRC, LR-CPCM, MBIS, meta-GGA TD-DFT gradient, ML-optimized integration grids, 
  MM, NACMEs, nearIR, NEB, NEB-TS, NL-DFT gradient (VV10), 2- and 3-layer-ONIOM, interface openCOSMO-RS, QMMM,   
  Crystal-QMMM, SF, symmetry and pop. for TD-DFT, r2SCAN hybrids, SOLVATOR                                   
                                                                         
[Other institutions]                                                     
  V. Asgeirsson          : NEB                                           
  Christoph Bannwarth    : sTDA-DFT, sTD-DFT, PBEh-3c, B97-3c, D3        
  Sebastian Ehlert       : rSCAN, r2SCAN, r2SCAN-3c, D4, dhf basis sets  
  Marvin Friede          : D4 for Fr, Ra, Ac-Lr                          
  Lars Goerigk           : TD-DFT with DH, B97 family of functionals     
  Stefan Grimme          : VdW corrections, initial TS optimization, DFT functionals, gCP, sTDA/sTD-DF 
  Waldemar Hujo          : DFT-NL                                        
  H. Jonsson             : NEB                                           
  Holger Kruse           : gCP                                           
  Marcel Mueller         : wB97X-3c, vDZP basis set                      
  Hagen Neugebauer       : wr2SCAN                                       
  Tobias Risthaus        : range-separated hybrid DFT                    
  Lukas Wittmann         : regularized MP2, r2SCAN double-hybrids, wr2SCAN        
                                                                         
We gratefully acknowledge several colleagues who have allowed us to      
interface, adapt or use parts of their codes:                            
  Ed Valeev, F. Pavosevic, A. Kumar             : LibInt (2-el integral package), F12 methods 
  Garnet Chan, S. Sharma, J. Yang, R. Olivares  : DMRG                   
  Ulf Ekstrom                                   : XCFun DFT Library      
  Mihaly Kallay                                 : mrcc  (arbitrary order and MRCC methods)
  Frank Weinhold                                : gennbo (NPA and NBO analysis)           
  Simon Mueller                                 : openCOSMO-RS                            
  Christopher J. Cramer and Donald G. Truhlar   : smd solvation model                     
  S Lehtola, MJT Oliveira, MAL Marques          : LibXC Library                           
  Liviu Ungur et al                             : ANISO software                          


 Your calculation uses the libint2 library for the computation of 2-el integrals
 For citations please refer to: http://libint.valeyev.net

 Your ORCA version has been built with support for libXC version: 6.2.2
 For citations please refer to: https://libxc.gitlab.io

 This ORCA versions uses:
   CBLAS   interface :  Fast vector & matrix operations
   LAPACKE interface :  Fast linear algebra routines
   SCALAPACK package :  Parallel linear algebra routines
   Shared memory     :  Shared parallel matrices
   BLAS/LAPACK       :  OpenBLAS 0.3.27  USE64BITINT DYNAMIC_ARCH NO_AFFINITY SkylakeX SINGLE_THREADED
        Core in use  :  SkylakeX
   Copyright (c) 2011-2014, The OpenBLAS Project


NOTE: MaxCore=5000 MB was set to SCF,MP2,MDCI,CIPSI,MRCI and CIS
      => If you want to overwrite this, your respective input block should be placed after the MaxCore statement
Warning: RI is on but no J-basis has been assigned. Assigning Def2/J (nothing to worry about!)
================================================================================

----- Orbital basis set information -----
Your calculation utilizes the basis: def2-SVP
   F. Weigend and R. Ahlrichs, Phys. Chem. Chem. Phys. 7, 3297 (2005).

----- AuxJ basis set information -----
Your calculation utilizes the auxiliary basis: def2/J
   F. Weigend, Phys. Chem. Chem. Phys. 8, 1057 (2006).

================================================================================
                                        WARNINGS
                       Please study these warnings very carefully!
================================================================================


================================================================================
                                       INPUT FILE
================================================================================
NAME = /home/ys/Research/PSID_server_room/orca/aniline_water_3/aniline_water_3.inp
|  1> ! B3LYP def2-SVP SP TightSCF ALLPOP KEEPDENS
|  2> 
|  3> %maxcore 5000
|  4> 
|  5> %pal
|  6> nprocs 20
|  7> end
|  8> 
|  9> * xyz 0 1
| 10>   N          -2.34225861828406      3.25633118922103      0.48030657776990
| 11>   C          -0.97006033523436      3.28480781542691      0.28425153578390
| 12>   C          -0.32786487541871      4.48985140004220     -0.08042737142917
| 13>   C          -0.16742757740573      2.14191514716733      0.47601086725168
| 14>   C           1.05340982658337      4.53412490416460     -0.27042369633731
| 15>   C           1.21430109512712      2.20072293125570      0.29616346213624
| 16>   C           1.83889689649123      3.39191208539290     -0.08707773444909
| 17>   H          -0.92315419199700      5.40315206119891     -0.16939551012337
| 18>   H          -0.64130276493969      1.19918718066707      0.76542540848805
| 19>   H           1.52323483647789      5.48063927624105     -0.55195329771701
| 20>   H           1.81079877927445      1.29746949155852      0.45135237543012
| 21>   H           2.92046699777461      3.43112265530320     -0.23235388624904
| 22>   H          -2.74642869912198      2.32885984986825      0.55403200840895
| 23>   H          -2.86281827250510      3.85787838482350     -0.15820897266294
| 24>   O          -2.81677067007110      4.56649667423272     -2.16511469717438
| 25>   H          -2.70709866033913      3.67431382517214     -2.52434618322518
| 26>   H          -1.90091376641180      4.85956512826374     -2.04055088590137
| 27> *
| 28> 
| 29>                          ****END OF INPUT****
================================================================================

                       ****************************
                       * Single Point Calculation *
                       ****************************

---------------------------------
CARTESIAN COORDINATES (ANGSTROEM)
---------------------------------
  N     -2.342259    3.256331    0.480307
  C     -0.970060    3.284808    0.284252
  C     -0.327865    4.489851   -0.080427
  C     -0.167428    2.141915    0.476011
  C      1.053410    4.534125   -0.270424
  C      1.214301    2.200723    0.296163
  C      1.838897    3.391912   -0.087078
  H     -0.923154    5.403152   -0.169396
  H     -0.641303    1.199187    0.765425
  H      1.523235    5.480639   -0.551953
  H      1.810799    1.297469    0.451352
  H      2.920467    3.431123   -0.232354
  H     -2.746429    2.328860    0.554032
  H     -2.862818    3.857878   -0.158209
  O     -2.816771    4.566497   -2.165115
  H     -2.707099    3.674314   -2.524346
  H     -1.900914    4.859565   -2.040551

----------------------------
CARTESIAN COORDINATES (A.U.)
----------------------------
  NO LB      ZA    FRAG     MASS         X           Y           Z
   0 N     7.0000    0    14.007   -4.426227    6.153574    0.907648
   1 C     6.0000    0    12.011   -1.833148    6.207387    0.537158
   2 C     6.0000    0    12.011   -0.619575    8.484590   -0.151986
   3 C     6.0000    0    12.011   -0.316392    4.047633    0.899530
   4 C     6.0000    0    12.011    1.990656    8.568254   -0.511027
   5 C     6.0000    0    12.011    2.294697    4.158764    0.559668
   6 C     6.0000    0    12.011    3.475012    6.409785   -0.164553
   7 H     1.0000    0     1.008   -1.744509   10.210478   -0.320111
   8 H     1.0000    0     1.008   -1.211887    2.266135    1.446444
   9 H     1.0000    0     1.008    2.878497   10.356907   -1.043041
  10 H     1.0000    0     1.008    3.421914    2.451862    0.852932
  11 H     1.0000    0     1.008    5.518883    6.483882   -0.439085
  12 H     1.0000    0     1.008   -5.189998    4.400907    1.046969
  13 H     1.0000    0     1.008   -5.409943    7.290334   -0.298972
  14 O     8.0000    0    15.999   -5.322925    8.629428   -4.091474
  15 H     1.0000    0     1.008   -5.115675    6.943447   -4.770323
  16 H     1.0000    0     1.008   -3.592206    9.183247   -3.856082

--------------------------------
INTERNAL COORDINATES (ANGSTROEM)
--------------------------------
 N      0   0   0     0.000000000000     0.00000000     0.00000000
 C      1   0   0     1.386425845739     0.00000000     0.00000000
 C      2   1   0     1.413342051591   120.24628214     0.00000000
 C      2   1   3     1.409678912485   121.84622378   178.11010586
 C      3   2   1     1.394983350810   120.80506166   179.49506692
 C      4   2   1     1.394624526206   120.82239426   181.17074861
 C      5   3   2     1.398304617063   120.82639676   359.12271165
 H      3   2   1     1.093801992046   119.05275816     2.19854191
 H      4   2   1     1.094099853241   119.20624463     1.42779548
 H      5   3   2     1.093564773081   119.20517700   180.02386633
 H      6   4   2     1.093508053161   119.16416049   180.05102859
 H      7   5   3     1.091987414334   120.63774168   180.27177114
 H      1   2   3     1.014392418489   115.04968927   168.20154484
 H      1   2   3     1.020070335950   113.85678391    36.36947950
 O     14   1   2     2.128833213019   140.83755223    34.64570223
 H     15  14   1     0.968021408052    92.60820262    50.14124375
 H     15  14   1     0.969638659402    89.99608226   307.46439260

---------------------------
INTERNAL COORDINATES (A.U.)
---------------------------
 N      0   0   0     0.000000000000     0.00000000     0.00000000
 C      1   0   0     2.619965153437     0.00000000     0.00000000
 C      2   1   0     2.670829411062   120.24628214     0.00000000
 C      2   1   3     2.663907081361   121.84622378   178.11010586
 C      3   2   1     2.636136494411   120.80506166   179.49506692
 C      4   2   1     2.635458414179   120.82239426   181.17074861
 C      5   3   2     2.642412778047   120.82639676   359.12271165
 H      3   2   1     2.066986209705   119.05275816     2.19854191
 H      4   2   1     2.067549085788   119.20624463     1.42779548
 H      5   3   2     2.066537930826   119.20517700   180.02386633
 H      6   4   2     2.066430745711   119.16416049   180.05102859
 H      7   5   3     2.063557154781   120.63774168   180.27177114
 H      1   2   3     1.916923863271   115.04968927   168.20154484
 H      1   2   3     1.927653572282   113.85678391    36.36947950
 O     14   1   2     4.022911757401   140.83755223    34.64570223
 H     15  14   1     1.829295352991    92.60820262    50.14124375
 H     15  14   1     1.832351515133    89.99608226   307.46439260

---------------------
BASIS SET INFORMATION
---------------------
There are 4 groups of distinct atoms

 Group   1 Type N   : 7s4p1d contracted to 3s2p1d pattern {511/31/1}
 Group   2 Type C   : 7s4p1d contracted to 3s2p1d pattern {511/31/1}
 Group   3 Type H   : 4s1p contracted to 2s1p pattern {31/1}
 Group   4 Type O   : 7s4p1d contracted to 3s2p1d pattern {511/31/1}

Atom   0N    basis set group =>   1
Atom   1C    basis set group =>   2
Atom   2C    basis set group =>   2
Atom   3C    basis set group =>   2
Atom   4C    basis set group =>   2
Atom   5C    basis set group =>   2
Atom   6C    basis set group =>   2
Atom   7H    basis set group =>   3
Atom   8H    basis set group =>   3
Atom   9H    basis set group =>   3
Atom  10H    basis set group =>   3
Atom  11H    basis set group =>   3
Atom  12H    basis set group =>   3
Atom  13H    basis set group =>   3
Atom  14O    basis set group =>   4
Atom  15H    basis set group =>   3
Atom  16H    basis set group =>   3
---------------------------------
AUXILIARY/J BASIS SET INFORMATION
---------------------------------
There are 4 groups of distinct atoms

 Group   1 Type N   : 12s5p4d2f1g contracted to 6s4p3d1f1g pattern {711111/2111/211/2/1}
 Group   2 Type C   : 12s5p4d2f1g contracted to 6s4p3d1f1g pattern {711111/2111/211/2/1}
 Group   3 Type H   : 5s2p1d contracted to 3s1p1d pattern {311/2/1}
 Group   4 Type O   : 12s5p4d2f1g contracted to 6s4p3d1f1g pattern {711111/2111/211/2/1}

Atom   0N    basis set group =>   1
Atom   1C    basis set group =>   2
Atom   2C    basis set group =>   2
Atom   3C    basis set group =>   2
Atom   4C    basis set group =>   2
Atom   5C    basis set group =>   2
Atom   6C    basis set group =>   2
Atom   7H    basis set group =>   3
Atom   8H    basis set group =>   3
Atom   9H    basis set group =>   3
Atom  10H    basis set group =>   3
Atom  11H    basis set group =>   3
Atom  12H    basis set group =>   3
Atom  13H    basis set group =>   3
Atom  14O    basis set group =>   4
Atom  15H    basis set group =>   3
Atom  16H    basis set group =>   3

Checking for AutoStart:
The File: /home/ys/Research/PSID_server_room/orca/aniline_water_3/aniline_water_3.gbw exists
Trying to determine its content:
     ... Fine, the file contains calculation information
     ... Fine, the calculation information was read
     ... Fine, the file contains a basis set
     ... Fine, the basis set was read
     ... Fine, the file contains a geometry
     ... Fine, the geometry was read
     ... The file does not contain orbitals - skipping AutoStart


           ************************************************************
           *        Program running with 20 parallel MPI-processes    *
           *              working on a common directory               *
           ************************************************************
------------------------------------------------------------------------------
                             ORCA STARTUP CALCULATIONS
                           -- RI-GTO INTEGRALS CHOSEN --
------------------------------------------------------------------------------
------------------------------------------------------------------------------
                   ___                                                        
                  /   \      - P O W E R E D   B Y -                         
                 /     \                                                     
                 |  |  |   _    _      __       _____    __    __             
                 |  |  |  | |  | |    /  \     |  _  \  |  |  /  |          
                  \  \/   | |  | |   /    \    | | | |  |  | /  /          
                 / \  \   | |__| |  /  /\  \   | |_| |  |  |/  /          
                |  |  |   |  __  | /  /__\  \  |    /   |      \           
                |  |  |   | |  | | |   __   |  |    \   |  |\   \          
                \     /   | |  | | |  |  |  |  | |\  \  |  | \   \       
                 \___/    |_|  |_| |__|  |__|  |_| \__\ |__|  \__/        
                                                                              
                      - O R C A' S   B I G   F R I E N D -                    
                                      &                                       
                       - I N T E G R A L  F E E D E R -                       
                                                                              
 v1 FN, 2020, v2 2021, v3 2022-2024                                           
------------------------------------------------------------------------------


----------------------
SHARK INTEGRAL PACKAGE
----------------------

Number of atoms                             ...     17
Number of basis functions                   ...    157
Number of shells                            ...     75
Maximum angular momentum                    ...      2
Integral batch strategy                     ... SHARK/LIBINT Hybrid
RI-J (if used) integral strategy            ... SPLIT-RIJ (Revised 2003 algorithm where possible)
Printlevel                                  ...      1
Contraction scheme used                     ... SEGMENTED contraction
Prescreening option                         ... SCHWARTZ
   Thresh                                   ... 2.500e-11
   Tcut                                     ... 2.500e-12
   Tpresel                                  ... 2.500e-12 
Coulomb Range Separation                    ... NOT USED
Exchange Range Separation                   ... NOT USED
Multipole approximations                    ... NOT USED
Finite Nucleus Model                        ... NOT USED
CABS basis                                  ... NOT available
Auxiliary Coulomb fitting basis             ... AVAILABLE
   # of basis functions in Aux-J            ...    491
   # of shells in Aux-J                     ...    165
   Maximum angular momentum in Aux-J        ...      4
Auxiliary J/K fitting basis                 ... NOT available
Auxiliary Correlation fitting basis         ... NOT available
Auxiliary 'external' fitting basis          ... NOT available

Checking pre-screening integrals            ... done (  0.0 sec) Dimension = 75
Check shell pair data                       ... done (  0.0 sec)
Shell pair information
Shell pair cut-off parameter TPreSel        ...   2.5e-12
Total number of shell pairs                 ...      2850
Shell pairs after pre-screening             ...      2660
Total number of primitive shell pairs       ...     10142
Primitive shell pairs kept                  ...      6930
          la=0 lb=0:    850 shell pairs
          la=1 lb=0:    979 shell pairs
          la=1 lb=1:    302 shell pairs
          la=2 lb=0:    312 shell pairs
          la=2 lb=1:    184 shell pairs
          la=2 lb=2:     33 shell pairs

Calculating one electron integrals          ... done (  0.0 sec)
Calculating RI/J V-Matrix + Cholesky decomp.... done (  0.0 sec)
Calculating Nuclear repulsion               ... done (  0.0 sec) ENN=    348.474805087525 Eh

Diagonalization of the overlap matrix:
Smallest eigenvalue                        ... 2.826e-04
Time for diagonalization                   ...    0.002 sec
Threshold for overlap eigenvalues          ... 1.000e-07
Number of eigenvalues below threshold      ... 0
Time for construction of square roots      ...    0.002 sec
Total time needed                          ...    0.009 sec

-------------------
DFT GRID GENERATION
-------------------

General Integration Accuracy     IntAcc      ... 4.388
Radial Grid Type                 RadialGrid  ... OptM3 with GC (2021)
Angular Grid (max. ang.)         AngularGrid ... 4 (Lebedev-302)
Angular grid pruning method      GridPruning ... 4 (adaptive)
Weight generation scheme         WeightScheme... mBecke (2022)
Basis function cutoff            BFCut       ... 1.0000e-11
Integration weight cutoff        WCut        ... 1.0000e-14
Partially contracted basis set               ... off
Rotationally invariant grid construction     ... off
Angular grids for H and He will be reduced by one unit

Total number of grid points                  ...    77237
Total number of batches                      ...     1215
Average number of points per batch           ...       63
Average number of grid points per atom       ...     4543

--------------------
COSX GRID GENERATION
--------------------

GRIDX 1
-------
General Integration Accuracy     IntAcc      ... 3.816
Radial Grid Type                 RadialGrid  ... OptM3 with GC (2021)
Angular Grid (max. ang.)         AngularGrid ... 1 (Lebedev-50)
Angular grid pruning method      GridPruning ... 4 (adaptive)
Weight generation scheme         WeightScheme... mBecke (2022)
Basis function cutoff            BFCut       ... 1.0000e-11
Integration weight cutoff        WCut        ... 1.0000e-14
Partially contracted basis set               ... on
Rotationally invariant grid construction     ... off
Angular grids for H and He will be reduced by one unit

Total number of grid points                  ...     9910
Total number of batches                      ...       86
Average number of points per batch           ...      115
Average number of grid points per atom       ...      583
UseSFitting                                  ... on

GRIDX 2
-------
General Integration Accuracy     IntAcc      ... 4.020
Radial Grid Type                 RadialGrid  ... OptM3 with GC (2021)
Angular Grid (max. ang.)         AngularGrid ... 2 (Lebedev-110)
Angular grid pruning method      GridPruning ... 4 (adaptive)
Weight generation scheme         WeightScheme... mBecke (2022)
Basis function cutoff            BFCut       ... 1.0000e-11
Integration weight cutoff        WCut        ... 1.0000e-14
Partially contracted basis set               ... on
Rotationally invariant grid construction     ... off
Angular grids for H and He will be reduced by one unit

Total number of grid points                  ...    21299
Total number of batches                      ...      175
Average number of points per batch           ...      121
Average number of grid points per atom       ...     1253
UseSFitting                                  ... on

GRIDX 3
-------
General Integration Accuracy     IntAcc      ... 4.338
Radial Grid Type                 RadialGrid  ... OptM3 with GC (2021)
Angular Grid (max. ang.)         AngularGrid ... 3 (Lebedev-194)
Angular grid pruning method      GridPruning ... 4 (adaptive)
Weight generation scheme         WeightScheme... mBecke (2022)
Basis function cutoff            BFCut       ... 1.0000e-11
Integration weight cutoff        WCut        ... 1.0000e-14
Partially contracted basis set               ... on
Rotationally invariant grid construction     ... off
Angular grids for H and He will be reduced by one unit

Total number of grid points                  ...    46661
Total number of batches                      ...      374
Average number of points per batch           ...      124
Average number of grid points per atom       ...     2745
UseSFitting                                  ... on
Initializing property integral containers    ... done (  0.0 sec)

SHARK setup successfully completed in   0.8 seconds

Maximum memory used throughout the entire STARTUP-calculation: 19.3 MB


           ************************************************************
           *        Program running with 20 parallel MPI-processes    *
           *              working on a common directory               *
           ************************************************************
-------------------------------------------------------------------------------
                                 ORCA GUESS
                   Start orbitals & Density for SCF / CASSCF
-------------------------------------------------------------------------------

------------
SCF SETTINGS
------------
Hamiltonian:
 Density Functional     Method          .... DFT(GTOs)
 Exchange Functional    Exchange        .... B88
   X-Alpha parameter    XAlpha          ....  0.666667
   Becke's b parameter  XBeta           ....  0.004200
 Correlation Functional Correlation     .... LYP
 LDA part of GGA corr.  LDAOpt          .... VWN-5
 Gradients option       PostSCFGGA      .... off
 Hybrid DFT is turned on
   Fraction HF Exchange ScalHFX         ....  0.200000
   Scaling of DF-GGA-X  ScalDFX         ....  0.720000
   Scaling of DF-GGA-C  ScalDFC         ....  0.810000
   Scaling of DF-LDA-C  ScalLDAC        ....  1.000000
   Perturbative correction              ....  0.000000
   NL short-range parameter             ....  4.800000
 RI-approximation to the Coulomb term is turned on
   Number of AuxJ basis functions       .... 491
   RIJ-COSX (HFX calculated with COS-X)).... on


General Settings:
 Integral files         IntName         .... /home/ys/Research/PSID_server_room/orca/aniline_water_3/aniline_water_3
 Hartree-Fock type      HFTyp           .... RHF
 Total Charge           Charge          ....    0
 Multiplicity           Mult            ....    1
 Number of Electrons    NEL             ....   60
 Basis Dimension        Dim             ....  157
 Nuclear Repulsion      ENuc            ....    348.4748050875 Eh

Convergence Acceleration:
 AO-DIIS                CNVDIIS         .... on
   Start iteration      DIISMaxIt       ....    12
   Startup error        DIISStart       ....  0.200000
   # of expansion vecs  DIISMaxEq       ....     5
   Bias factor          DIISBfac        ....   1.050
   Max. coefficient     DIISMaxC        ....  10.000
 MO-DIIS                CNVKDIIS        .... off
 Trust-Rad. Augm. Hess. CNVTRAH         .... auto
   Auto Start mean grad. ratio tolernc. ....  1.125000
   Auto Start start iteration           ....    50
   Auto Start num. interpolation iter.  ....    10
   Max. Number of Micro iterations      ....    24
   Max. Number of Macro iterations      .... Maxiter - #DIIS iter
   Number of Davidson start vectors     ....     2
   Converg. threshold    (grad. norm)   ....   1.000e-05
   Grad. Scal. Fac. for Micro threshold ....   0.100
   Minimum threshold for Micro iter.    ....   1.000e-02
   NR start threshold (gradient norm)   ....   1.000e-04
   Initial trust radius                 ....   0.400
   Minimum AH scaling param. (alpha)    ....   1.000
   Maximum AH scaling param. (alpha)    .... 1000.000
   Quad. conv. algorithm                .... NR
   White noise on init. David. guess    .... on
   Maximum white noise                  ....   0.010
   Pseudo random numbers                .... off
   Inactive MOs                         .... canonical
   Orbital update algorithm             .... Taylor
   Preconditioner                       .... Diag
   Full preconditioner red. dimension   ....   250
 SOSCF                  CNVSOSCF        .... on
   Start iteration      SOSCFMaxIt      ....   150
   Startup grad/error   SOSCFStart      ....  0.003300
   Hessian update       SOSCFHessUp     .... L-BFGS
 Level Shifting         CNVShift        .... on
   Level shift para.    LevelShift      ....    0.2500
   Turn off err/grad.   ShiftErr        ....    0.0010
 Zerner damping         CNVZerner       .... off
 Static damping         CNVDamp         .... on
   Fraction old density DampFac         ....    0.7000
   Max. Damping (<1)    DampMax         ....    0.9800
   Min. Damping (>=0)   DampMin         ....    0.0000
   Turn off err/grad.   DampErr         ....    0.1000

SCF Procedure:
 Maximum # iterations   MaxIter         ....   125
 SCF integral mode      SCFMode         .... Direct
   Integral package                     .... SHARK and LIBINT hybrid scheme
 Reset frequency        DirectResetFreq ....    20
 Integral Threshold     Thresh          ....  2.500e-11 Eh
 Primitive CutOff       TCut            ....  2.500e-12 Eh

Convergence Tolerance:
 Convergence Check Mode ConvCheckMode   .... Total+1el-Energy
 Convergence forced     ConvForced      .... 0
 Energy Change          TolE            ....  1.000e-08 Eh
 1-El. energy change                    ....  1.000e-05 Eh
 Orbital Gradient       TolG            ....  1.000e-05
 Orbital Rotation angle TolX            ....  1.000e-05
 DIIS Error             TolErr          ....  5.000e-07

------------------------------
INITIAL GUESS: MODEL POTENTIAL
------------------------------
Loading Hartree-Fock densities                     ... done
Calculating cut-offs                               ... done
Initializing the effective Hamiltonian             ... done
Setting up the integral package (SHARK)            ... done
Starting the Coulomb interaction                   ... done (   0.0 sec)
Making the grid                                    ... done (   0.1 sec)
Mapping shells                                     ... done
Starting the XC term evaluation                    ... done (   0.0 sec)
  promolecular density results
     # of electrons  =     59.999979975
     EX              =    -48.274950817
     EC              =     -2.000619100
     EX+EC           =    -50.275569917
Transforming the Hamiltonian                       ... done (   0.0 sec)
Diagonalizing the Hamiltonian                      ... done (   0.0 sec)
Back transforming the eigenvectors                 ... done (   0.0 sec)
Now organizing SCF variables                       ... done
                      ------------------
                      INITIAL GUESS DONE (   0.2 sec)
                      ------------------
             **** ENERGY FILE WAS UPDATED (/home/ys/Research/PSID_server_room/orca/aniline_water_3/aniline_water_3.en.tmp) ****
Finished Guess after   0.7 sec
Maximum memory used throughout the entire GUESS-calculation: 11.1 MB


           ************************************************************
           *        Program running with 20 parallel MPI-processes    *
           *              working on a common directory               *
           ************************************************************

-------------------------------------------------------------------------------------------
                                      ORCA LEAN-SCF
                              memory conserving SCF solver
-------------------------------------------------------------------------------------------

----------------------------------------D-I-I-S--------------------------------------------
Iteration    Energy (Eh)           Delta-E    RMSDP     MaxDP     DIISErr   Damp  Time(sec)
-------------------------------------------------------------------------------------------
               ***  Starting incremental Fock matrix formation  ***
    1    -363.2735594553392957     0.00e+00  4.22e-03  8.41e-02  2.87e-01  0.700   0.3
    2    -363.4023464864862945    -1.29e-01  2.86e-03  4.67e-02  1.20e-01  0.700   0.3
                               ***Turning on AO-DIIS***
    3    -363.4534930354458311    -5.11e-02  1.22e-03  1.53e-02  3.93e-02  0.700   0.4
    4    -363.4836435546974371    -3.02e-02  2.12e-03  2.83e-02  1.95e-02  0.000   0.3
    5    -363.5495365849922109    -6.59e-02  3.14e-04  4.86e-03  5.75e-03  0.000   0.2
                              *** Initializing SOSCF ***
---------------------------------------S-O-S-C-F--------------------------------------
Iteration    Energy (Eh)           Delta-E    RMSDP     MaxDP     MaxGrad    Time(sec)
--------------------------------------------------------------------------------------
    6    -363.5498839707976231    -3.47e-04  1.24e-04  2.02e-03  2.33e-03     0.2
               *** Restarting incremental Fock matrix formation ***
    7    -363.5499102394624060    -2.63e-05  7.37e-05  1.14e-03  2.30e-04     0.3
    8    -363.5499105497308392    -3.10e-07  2.92e-05  5.45e-04  2.47e-04     0.3
    9    -363.5499129915234562    -2.44e-06  1.42e-05  2.54e-04  9.50e-05     0.3
   10    -363.5499128934529836     9.81e-08  7.45e-06  1.63e-04  1.07e-04     0.3
   11    -363.5499131060510081    -2.13e-07  2.36e-06  6.15e-05  1.32e-05     0.3
   12    -363.5499131078753408    -1.82e-09  1.26e-06  4.02e-05  1.72e-05     0.3
                 **** Energy Check signals convergence ****

               *****************************************************
               *                     SUCCESS                       *
               *           SCF CONVERGED AFTER  12 CYCLES          *
               *****************************************************

Recomputing exchange energy using gridx3       ... done (    0.310 sec)
Old exchange energy                            :     -9.812631523 Eh
New exchange energy                            :     -9.812655696 Eh
Exchange energy change after final integration :     -0.000024173 Eh
Total energy after final integration           :   -363.549937281 Eh
             **** ENERGY FILE WAS UPDATED (/home/ys/Research/PSID_server_room/orca/aniline_water_3/aniline_water_3.en.tmp) ****

----------------
TOTAL SCF ENERGY
----------------

Total Energy       :       -363.54993728105580 Eh           -9892.69673 eV

Components:
Nuclear Repulsion  :        348.47480508752460 Eh            9482.48153 eV
Electronic Energy  :       -712.02471819539994 Eh          -19375.17760 eV
One Electron Energy:      -1182.87727884556148 Eh          -32187.72715 eV
Two Electron Energy:        470.85256065016154 Eh           12812.54955 eV

Virial components:
Potential Energy   :       -723.49733422814631 Eh          -19687.36335 eV
Kinetic Energy     :        359.94739694709051 Eh            9794.66662 eV
Virial Ratio       :          2.01000851892393

DFT components:
N(Alpha)           :       29.999970520611 electrons
N(Beta)            :       29.999970520611 electrons
N(Total)           :       59.999941041222 electrons
E(X)               :      -38.978628091329 Eh       
E(C)               :       -2.369831677296 Eh       
E(XC)              :      -41.348459768625 Eh       

---------------
SCF CONVERGENCE
---------------

  Last Energy change         ...    1.8243e-09  Tolerance :   1.0000e-08
  Last MAX-Density change    ...    4.0232e-05  Tolerance :   1.0000e-07
  Last RMS-Density change    ...    1.2611e-06  Tolerance :   5.0000e-09
  Last DIIS Error            ...    2.3253e-03  Tolerance :   5.0000e-07
  Last Orbital Gradient      ...    1.7230e-05  Tolerance :   1.0000e-05
  Last Orbital Rotation      ...    2.8790e-05  Tolerance :   1.0000e-05


----------------
ORBITAL ENERGIES
----------------

  NO   OCC          E(Eh)            E(eV) 
   0   2.0000     -19.140751      -520.8463 
   1   2.0000     -14.321603      -389.7106 
   2   2.0000     -10.222915      -278.1796 
   3   2.0000     -10.185583      -277.1638 
   4   2.0000     -10.184807      -277.1427 
   5   2.0000     -10.179109      -276.9876 
   6   2.0000     -10.178466      -276.9702 
   7   2.0000     -10.174031      -276.8495 
   8   2.0000      -0.998696       -27.1759 
   9   2.0000      -0.902391       -24.5553 
  10   2.0000      -0.822427       -22.3794 
  11   2.0000      -0.731488       -19.9048 
  12   2.0000      -0.710538       -19.3347 
  13   2.0000      -0.602059       -16.3829 
  14   2.0000      -0.586864       -15.9694 
  15   2.0000      -0.528884       -14.3917 
  16   2.0000      -0.516472       -14.0539 
  17   2.0000      -0.499479       -13.5915 
  18   2.0000      -0.469457       -12.7746 
  19   2.0000      -0.427930       -11.6446 
  20   2.0000      -0.423944       -11.5361 
  21   2.0000      -0.414077       -11.2676 
  22   2.0000      -0.392136       -10.6706 
  23   2.0000      -0.375647       -10.2219 
  24   2.0000      -0.355949        -9.6859 
  25   2.0000      -0.338689        -9.2162 
  26   2.0000      -0.315354        -8.5812 
  27   2.0000      -0.302779        -8.2390 
  28   2.0000      -0.250564        -6.8182 
  29   2.0000      -0.202196        -5.5020 
  30   0.0000      -0.006261        -0.1704 
  31   0.0000       0.012865         0.3501 
  32   0.0000       0.042260         1.1499 
  33   0.0000       0.069225         1.8837 
  34   0.0000       0.077000         2.0953 
  35   0.0000       0.107127         2.9151 
  36   0.0000       0.118711         3.2303 
  37   0.0000       0.137001         3.7280 
  38   0.0000       0.148463         4.0399 
  39   0.0000       0.159167         4.3311 
  40   0.0000       0.168348         4.5810 
*Only the first 10 virtual orbitals were printed.

                    ********************************
                    * MULLIKEN POPULATION ANALYSIS *
                    ********************************

-----------------------
MULLIKEN ATOMIC CHARGES
-----------------------
   0 N :   -0.080261
   1 C :    0.037321
   2 C :   -0.073124
   3 C :   -0.026134
   4 C :    0.017444
   5 C :    0.017026
   6 C :    0.010461
   7 H :   -0.027114
   8 H :   -0.048177
   9 H :   -0.021053
  10 H :   -0.021138
  11 H :   -0.026170
  12 H :    0.095998
  13 H :    0.094973
  14 O :   -0.269516
  15 H :    0.161540
  16 H :    0.157923
Sum of atomic charges:   -0.0000000

--------------------------------
MULLIKEN REDUCED ORBITAL CHARGES
--------------------------------
  0 N s       :     3.298139  s :     3.298139
      pz      :     1.581618  p :     3.764421
      px      :     1.055883
      py      :     1.126919
      dz2     :     0.002440  d :     0.017701
      dxz     :     0.004450
      dyz     :     0.001619
      dx2y2   :     0.005127
      dxy     :     0.004067

  1 C s       :     2.992526  s :     2.992526
      pz      :     0.948791  p :     2.908618
      px      :     0.933544
      py      :     1.026283
      dz2     :     0.005236  d :     0.061535
      dxz     :     0.014693
      dyz     :     0.006452
      dx2y2   :     0.018202
      dxy     :     0.016951

  2 C s       :     3.231406  s :     3.231406
      pz      :     1.073599  p :     2.809438
      px      :     0.868338
      py      :     0.867501
      dz2     :     0.002941  d :     0.032280
      dxz     :     0.005113
      dyz     :     0.003291
      dx2y2   :     0.008924
      dxy     :     0.012010

  3 C s       :     3.223076  s :     3.223076
      pz      :     1.053731  p :     2.770598
      px      :     0.879381
      py      :     0.837486
      dz2     :     0.002649  d :     0.032460
      dxz     :     0.005570
      dyz     :     0.003149
      dx2y2   :     0.009293
      dxy     :     0.011798

  4 C s       :     3.164490  s :     3.164490
      pz      :     0.966308  p :     2.782029
      px      :     0.939315
      py      :     0.876406
      dz2     :     0.002549  d :     0.036037
      dxz     :     0.007127
      dyz     :     0.003831
      dx2y2   :     0.011251
      dxy     :     0.011279

  5 C s       :     3.163138  s :     3.163138
      pz      :     0.969280  p :     2.783836
      px      :     0.930611
      py      :     0.883945
      dz2     :     0.003311  d :     0.036000
      dxz     :     0.006554
      dyz     :     0.003825
      dx2y2   :     0.010415
      dxy     :     0.011894

  6 C s       :     3.153883  s :     3.153883
      pz      :     1.031687  p :     2.801523
      px      :     0.812639
      py      :     0.957198
      dz2     :     0.003044  d :     0.034133
      dxz     :     0.003032
      dyz     :     0.005851
      dx2y2   :     0.012002
      dxy     :     0.010204

  7 H s       :     1.003960  s :     1.003960
      pz      :     0.005435  p :     0.023154
      px      :     0.006513
      py      :     0.011205

  8 H s       :     1.025304  s :     1.025304
      pz      :     0.005937  p :     0.022873
      px      :     0.005208
      py      :     0.011729

  9 H s       :     0.998369  s :     0.998369
      pz      :     0.005255  p :     0.022684
      px      :     0.005567
      py      :     0.011863

 10 H s       :     0.998427  s :     0.998427
      pz      :     0.004766  p :     0.022710
      px      :     0.006847
      py      :     0.011097

 11 H s       :     1.003230  s :     1.003230
      pz      :     0.005232  p :     0.022940
      px      :     0.014364
      py      :     0.003344

 12 H s       :     0.858997  s :     0.858997
      pz      :     0.013060  p :     0.045005
      px      :     0.010522
      py      :     0.021423

 13 H s       :     0.857579  s :     0.857579
      pz      :     0.019204  p :     0.047448
      px      :     0.012050
      py      :     0.016194

 14 O s       :     3.684265  s :     3.684265
      pz      :     1.804070  p :     4.574613
      px      :     1.416668
      py      :     1.353875
      dz2     :     0.001471  d :     0.010638
      dxz     :     0.000922
      dyz     :     0.001396
      dx2y2   :     0.005349
      dxy     :     0.001500

 15 H s       :     0.768242  s :     0.768242
      pz      :     0.021360  p :     0.070218
      px      :     0.015956
      py      :     0.032902

 16 H s       :     0.771205  s :     0.771205
      pz      :     0.019692  p :     0.070872
      px      :     0.032997
      py      :     0.018182



                     *******************************
                     * LOEWDIN POPULATION ANALYSIS *
                     *******************************

----------------------
LOEWDIN ATOMIC CHARGES
----------------------
   0 N :   -0.037283
   1 C :    0.020333
   2 C :   -0.083271
   3 C :   -0.072412
   4 C :   -0.018731
   5 C :   -0.014931
   6 C :   -0.063991
   7 H :    0.021138
   8 H :    0.019339
   9 H :    0.025625
  10 H :    0.025842
  11 H :    0.022733
  12 H :    0.065358
  13 H :    0.051042
  14 O :   -0.116538
  15 H :    0.081935
  16 H :    0.073813

-------------------------------
LOEWDIN REDUCED ORBITAL CHARGES
-------------------------------
  0 N s       :     3.065322  s :     3.065322
      pz      :     1.558005  p :     3.928109
      px      :     1.144912
      py      :     1.225193
      dz2     :     0.004733  d :     0.043852
      dxz     :     0.009189
      dyz     :     0.003400
      dx2y2   :     0.014381
      dxy     :     0.012149

  1 C s       :     2.840573  s :     2.840573
      pz      :     0.942166  p :     2.994024
      px      :     0.967603
      py      :     1.084256
      dz2     :     0.010966  d :     0.145070
      dxz     :     0.030629
      dyz     :     0.014100
      dx2y2   :     0.046518
      dxy     :     0.042857

  2 C s       :     2.863313  s :     2.863313
      pz      :     1.055315  p :     3.133864
      px      :     1.052989
      py      :     1.025560
      dz2     :     0.006797  d :     0.086094
      dxz     :     0.011237
      dyz     :     0.007125
      dx2y2   :     0.027029
      dxy     :     0.033906

  3 C s       :     2.861331  s :     2.861331
      pz      :     1.047200  p :     3.124518
      px      :     1.055006
      py      :     1.022313
      dz2     :     0.006229  d :     0.086564
      dxz     :     0.012300
      dyz     :     0.006514
      dx2y2   :     0.027978
      dxy     :     0.033543

  4 C s       :     2.862327  s :     2.862327
      pz      :     0.963472  p :     3.063747
      px      :     1.060452
      py      :     1.039822
      dz2     :     0.005965  d :     0.092657
      dxz     :     0.015917
      dyz     :     0.007969
      dx2y2   :     0.031327
      dxy     :     0.031478

  5 C s       :     2.862149  s :     2.862149
      pz      :     0.962756  p :     3.060343
      px      :     1.056459
      py      :     1.041128
      dz2     :     0.007602  d :     0.092439
      dxz     :     0.014633
      dyz     :     0.008276
      dx2y2   :     0.029335
      dxy     :     0.032593

  6 C s       :     2.858744  s :     2.858744
      pz      :     1.025261  p :     3.116107
      px      :     1.031847
      py      :     1.058999
      dz2     :     0.007068  d :     0.089140
      dxz     :     0.006072
      dyz     :     0.013632
      dx2y2   :     0.033086
      dxy     :     0.029282

  7 H s       :     0.909737  s :     0.909737
      pz      :     0.016874  p :     0.069126
      px      :     0.019550
      py      :     0.032702

  8 H s       :     0.912994  s :     0.912994
      pz      :     0.018088  p :     0.067666
      px      :     0.015813
      py      :     0.033766

  9 H s       :     0.908479  s :     0.908479
      pz      :     0.015593  p :     0.065897
      px      :     0.016485
      py      :     0.033819

 10 H s       :     0.908350  s :     0.908350
      pz      :     0.014136  p :     0.065808
      px      :     0.019858
      py      :     0.031814

 11 H s       :     0.909868  s :     0.909868
      pz      :     0.015941  p :     0.067399
      px      :     0.040355
      py      :     0.011103

 12 H s       :     0.814132  s :     0.814132
      pz      :     0.036888  p :     0.120510
      px      :     0.025212
      py      :     0.058410

 13 H s       :     0.816480  s :     0.816480
      pz      :     0.059279  p :     0.132478
      px      :     0.031194
      py      :     0.042005

 14 O s       :     3.434204  s :     3.434204
      pz      :     1.766181  p :     4.662862
      px      :     1.485237
      py      :     1.411444
      dz2     :     0.002847  d :     0.019473
      dxz     :     0.000638
      dyz     :     0.003025
      dx2y2   :     0.010592
      dxy     :     0.002369

 15 H s       :     0.743188  s :     0.743188
      pz      :     0.057400  p :     0.174877
      px      :     0.035438
      py      :     0.082039

 16 H s       :     0.747265  s :     0.747265
      pz      :     0.050301  p :     0.178922
      px      :     0.091014
      py      :     0.037607



                      *****************************
                      * MAYER POPULATION ANALYSIS *
                      *****************************

  NA   - Mulliken gross atomic population
  ZA   - Total nuclear charge
  QA   - Mulliken gross atomic charge
  VA   - Mayer's total valence
  BVA  - Mayer's bonded valence
  FA   - Mayer's free valence

  ATOM       NA         ZA         QA         VA         BVA        FA
  0 N      7.0803     7.0000    -0.0803     3.1579     3.1579    -0.0000
  1 C      5.9627     6.0000     0.0373     4.0754     4.0754    -0.0000
  2 C      6.0731     6.0000    -0.0731     3.8176     3.8176    -0.0000
  3 C      6.0261     6.0000    -0.0261     3.8056     3.8056    -0.0000
  4 C      5.9826     6.0000     0.0174     3.8533     3.8533    -0.0000
  5 C      5.9830     6.0000     0.0170     3.8557     3.8557    -0.0000
  6 C      5.9895     6.0000     0.0105     3.8133     3.8133    -0.0000
  7 H      1.0271     1.0000    -0.0271     0.9915     0.9915    -0.0000
  8 H      1.0482     1.0000    -0.0482     0.9851     0.9851    -0.0000
  9 H      1.0211     1.0000    -0.0211     0.9768     0.9768    -0.0000
 10 H      1.0211     1.0000    -0.0211     0.9764     0.9764     0.0000
 11 H      1.0262     1.0000    -0.0262     0.9777     0.9777     0.0000
 12 H      0.9040     1.0000     0.0960     1.0032     1.0032    -0.0000
 13 H      0.9050     1.0000     0.0950     1.0864     1.0864    -0.0000
 14 O      8.2695     8.0000    -0.2695     2.1279     2.1279    -0.0000
 15 H      0.8385     1.0000     0.1615     1.0106     1.0106    -0.0000
 16 H      0.8421     1.0000     0.1579     1.0387     1.0387    -0.0000

  Mayer bond orders larger than 0.100000
B(  0-N ,  1-C ) :   1.2183 B(  0-N , 12-H ) :   0.9511 B(  0-N , 13-H ) :   0.9196 
B(  1-C ,  2-C ) :   1.3240 B(  1-C ,  3-C ) :   1.3355 B(  2-C ,  4-C ) :   1.3899 
B(  2-C ,  7-H ) :   0.9769 B(  3-C ,  5-C ) :   1.3947 B(  3-C ,  8-H ) :   0.9840 
B(  4-C ,  6-C ) :   1.3740 B(  4-C ,  9-H ) :   0.9800 B(  5-C ,  6-C ) :   1.3724 
B(  5-C , 10-H ) :   0.9786 B(  6-C , 11-H ) :   0.9881 B( 13-H , 14-O ) :   0.1240 
B( 14-O , 15-H ) :   0.9944 B( 14-O , 16-H ) :   0.9857 

Environment variable NBOEXE for nbo6.exe or nbo5.exe not set! Skipping NBO-Analysis

-------
TIMINGS
-------

Total SCF time: 0 days 0 hours 0 min 4 sec 

Total time                  ....       4.401 sec
Sum of individual times     ....       4.301 sec  ( 97.7%)

SCF preparation             ....       0.587 sec  ( 13.3%)
Fock matrix formation       ....       3.281 sec  ( 74.5%)
  Startup                   ....       0.051 sec  (  1.6% of F)
  Split-RI-J                ....       0.274 sec  (  8.4% of F)
  Chain of spheres X        ....       1.761 sec  ( 53.7% of F)
  XC integration            ....       1.066 sec  ( 32.5% of F)
    XC Preparation          ....       0.000 sec  (  0.0% of XC)
    Basis function eval.    ....       0.168 sec  ( 15.7% of XC)
    Density eval.           ....       0.067 sec  (  6.3% of XC)
    XC-Functional eval.     ....       0.043 sec  (  4.1% of XC)
    XC-Potential eval.      ....       0.100 sec  (  9.4% of XC)
Diagonalization             ....       0.000 sec  (  0.0%)
Density matrix formation    ....       0.139 sec  (  3.2%)
Total Energy calculation    ....       0.043 sec  (  1.0%)
Population analysis         ....       0.020 sec  (  0.4%)
Orbital Transformation      ....       0.022 sec  (  0.5%)
Orbital Orthonormalization  ....       0.000 sec  (  0.0%)
DIIS solution               ....       0.133 sec  (  3.0%)
SOSCF solution              ....       0.077 sec  (  1.7%)
Finished LeanSCF after   4.4 sec

Maximum memory used throughout the entire LEANSCF-calculation: 16.4 MB

-------------------------   --------------------
FINAL SINGLE POINT ENERGY      -363.549937281056
-------------------------   --------------------



           ************************************************************
           *        Program running with 20 parallel MPI-processes    *
           *              working on a common directory               *
           ************************************************************

------------------------------------------------------------------------------
                              ORCA PROPERTY CALCULATIONS
------------------------------------------------------------------------------

GBWName                                 ... /home/ys/Research/PSID_server_room/orca/aniline_water_3/aniline_water_3.gbw
Number of atoms                         ...     17
Number of basis functions               ...    157
Max core memory                         ...   5000 MB

Electric properties:
Dipole moment                           ... YES
Quadrupole moment                       ...  NO
Static polarizability (Dipole/Dipole)   ...  NO
Static polarizability (Dipole/Quad.)    ...  NO
Static polarizability (Quad./Quad.)     ...  NO
Static polarizability (Velocity)        ...  NO

Atomic electric properties:
Dipole moment                           ...  NO
Quadrupole moment                       ...  NO
Static polarizability                   ...  NO

Choice of electric origin               ... Center of mass
Position of electric origin             ...    -0.879384     6.651307    -0.415210

General magnetic properties:
Magnetizability                         ...  NO

EPR properties:
g-Tensor (aka g-matrix)                 ...  NO
Zero-Field splitting spin-orbit         ...  NO
Zero-field splitting spin-spin          ...  NO
Hyperfine couplings                     ...  NO (   0 nuclei)
Quadrupole couplings                    ...  NO (   0 nuclei)
Contact density                         ...  NO (   0 nuclei)

NMR properties:
Chemical shifts                         ...  NO (   0 nuclei)
Spin-rotation constants                 ...  NO (   0 nuclei)
Spin-spin couplings                     ...  NO (   0 nuclei,    0 pairs)

Choice of magnetic origin               ... GIAO
Position of magnetic origin             ...     0.000000     0.000000     0.000000

Properties with geometric perturbations:
SCF Hessian                             ...  NO
IR spectrum                             ...  NO
VCD spectrum                            ...  NO
X-ray spectroscopy properties:
SCF XES/XAS/RIXS spectra                ...  NO


-------------
DIPOLE MOMENT
-------------

Method             : SCF
Type of density    : Electron Density
Multiplicity       :   1
Irrep              :   0
Energy             :  -363.5499372810558043 Eh
Relativity type    : 
Basis              : AO
                                X                 Y                 Z
Electronic contribution:      1.275230182      -0.430055375       1.349715450
Nuclear contribution   :     -1.301392058      -0.122277823      -1.834212171
                        -----------------------------------------
Total Dipole Moment    :     -0.026161876      -0.552333198      -0.484496722
                        -----------------------------------------
Magnitude (a.u.)       :      0.735182616
Magnitude (Debye)      :      1.868685702



--------------------
Rotational spectrum 
--------------------
 
Rotational constants in cm-1:             0.106979             0.044305             0.035649 
Rotational constants in MHz :          3207.138424          1328.220463          1068.736476 

Dipole components along the rotational axes: 
x,y,z [a.u.] :    -0.033829    -0.178556     0.712367 
x,y,z [Debye]:    -0.085986    -0.453854     1.810693 

 

Dipole moment calculation done in   0.0 sec 

Maximum memory used throughout the entire PROP-calculation: 7.4 MB

--------------------------------
SUGGESTED CITATIONS FOR THIS RUN
--------------------------------

Below you find a list of papers that are relevant to this ORCA run
We neither can nor want to force you to cite these papers, but we appreciate if you do
You receive ORCA, which is the product of decades of hard work by many enthusiastic individuals, for free
The only thing we kindly ask in return is that you cite our papers,
We deeply appreciate it, if you show your appreciation for ORCA by not just citing the generic ORCA reference.

Please note that relegating all ORCA citations to the supporting information does *not* help us.
SI sections are not indexed - citations you put there will not count into any citation statistics
But we need these citations in order to attract the funding resources that allow us to do what we are doing

Therefore, if you are a happy ORCA user, please consider citing a few of the papers listed below in the main body of your paper

In addition to the list printed below, the program has created the file /home/ys/Research/PSID_server_room/orca/aniline_water_3/aniline_water_3.bibtex that contains the list in bibtex format
You can import this file easily into all common literature databanks and citation aid programs


List of essential papers. We consider these as the minimum necessary citations

  1. Neese,F.
     Software update: the ORCA program system, version 5.0
     WIRES Comput. Molec. Sci., 2022 12(1)e1606
     doi.org/10.1002/wcms.1606

List of papers to cite with high priority. The work reported in these papers was absolutely
necessary for this run to complete.
Our perspective: the developers of density functionals and basis sets usually get cited in chemistry papers
Good! But without the algorithms to do something with them, the functionals or basis sets would not do anything.
Hence, in our opinion, the algorithm design and method developments papers are equally worthy of getting cited

  1. Neese,F.
     An improvement of the resolution of the identity approximation for the formation of the Coulomb matrix
     J. Comp. Chem., 2003 24(14)1740-1747
     doi.org/10.1002/jcc.10318
  2. Neese,F.; Wennmohs,F.; Hansen,A.; Becker,U.
     Efficient, approximate and parallel Hartree-Fock and hybrid DFT calculations. A 'chain-of-spheres' algorithm for the Hartree-Fock exchange
     Chem. Phys., 2009 356(1-3)98-109
     doi.org/10.1016/j.chemphys.2008.10.036
  3. Helmich-Paris,B.; de Souza,B.; Neese,F.; Izsák,R.
     An improved chain of spheres for exchange algorithm
     J. Chem. Phys., 2021 155 104109
     doi.org/doi: 10.1063/5.0058766.
  4. Neese,F.
     The SHARK Integral Generation and Digestion System
     J. Comp. Chem., 2022  1-16
     doi.org/10.1002/jcc.26942

List of suggested additional citations. These are papers that are important in the 'surrounding' of 
of this run, or papers that preceded the highly important papers. If you like your results we are grateful for a citation.

  1. Izsak,R.; Neese,F.
     An overlap fitted chain of spheres exchange method
     J. Chem. Phys., 2011 135 144105
     doi.org/10.1063/1.3646921
  2. Izsak,R.; Hansen,A.; Neese,F.
     The resolution of identity and chain of spheres approximations for the LPNO-CCSD singles Fock term
     Molec. Phys., 2012 110 2413-2417
     doi.org/10.1080/00268976.2012.687466
  3. Neese,F.
     The ORCA program system
     WIRES Comput. Molec. Sci., 2012 2(1)73-78
     doi.org/10.1002/wcms.81
  4. Izsak,R.; Neese,F.; Klopper,W.
     Robust fitting techniques in the chain of spheres approximation to the Fock exchange: The role of the complementary space
     J. Chem. Phys., 2013 139 
     doi.org/10.1063/1.4819264
  5. Neese,F.
     Software update: the ORCA program system, version 4.0
     WIRES Comput. Molec. Sci., 2018 8(1)1-6
     doi.org/10.1002/wcms.1327
  6. Neese,F.; Wennmohs,F.; Becker,U.; Riplinger,C.
     The ORCA quantum chemistry program package
     J. Chem. Phys., 2020 152 Art. No. L224108
     doi.org/10.1063/5.0004608

List of optional additional citations

  1. Neese,F.
     Approximate second-order SCF convergence for spin unrestricted wavefunctions
     Chem. Phys. Lett., 2000 325(1-3)93-98
     doi.org/10.1016/s0009-2614(00)00662-x

Timings for individual modules:

Sum of individual times          ...        7.343 sec (=   0.122 min)
Startup calculation              ...        1.340 sec (=   0.022 min)  18.2 %
SCF iterations                   ...        5.365 sec (=   0.089 min)  73.1 %
Property calculations            ...        0.638 sec (=   0.011 min)   8.7 %
                             ****ORCA TERMINATED NORMALLY****
TOTAL RUN TIME: 0 days 0 hours 0 minutes 8 seconds 199 msec
